Siesta Version: siesta-2.0-release
Architecture  : intel-mkl
Compiler flags: ifort -w -mp -tpp5 -O3 -xP -static -DWXML_INIT_FIX
SERIAL version

* Running in serial mode
>> Start of run:  17-FEB-2007  17:36:13

                           ***********************       
                           *  WELCOME TO SIESTA  *       
                           ***********************       

reinit: Reading from standard input
************************** Dump of input data file ****************************
# relajacion (coord crist & base & pseudo wth semicore & GGA)
SystemLabel      SnO2CG
NumberOfSpecies  2
%block ChemicalSpeciesLabel
    1   8   O
    2   50  Sn
%endblock ChemicalSpeciesLabel
%include atomcoord.fdf
%Block PAO.Basis
Sn  4      0.57189
n=5   0   2   E    48.97553     3.16263
   4.52650     3.51761
   1.00000     1.00000
n=5   1   2   E     0.70334     0.26859
   5.81562     3.65820
   1.00000     1.00000
n=5   2   1   E    68.0000     1.000000
   4.0
   1.00000
n=4   2   2   E    68.33032     0.68970
   4.0         3.5
   1.00000     1.0
O    3     -0.24021
 n=2   0   2   E    64.35698     2.24090
     4.39710     2.52029
     1.00000     1.00000
 n=2   1   2   E     7.99069     4.88285
     6.12535     2.30982
     1.00000     1.00000
 n=3   2   1   E    20.95104     3.07361
     5.07487
     1.00000
%EndBlock PAO.Basis
KgridCutoff          5. Ang
MeshCutoff           175. Ry
#SpinPolarized         yes
xc.functional         GGA
xc.authors            PBE
SolutionMethod        diagon        # OrderN or Diagon
MaxSCFIterations       500
DM.MixingWeight       0.05
DM.Tolerance          1.d-4
DM.NumberPulay         8
ElectronicTemperature  300 K
DM.UseSaveDM          true
UseSaveData            true
MD.TypeOfRun           cg           # Type of dynamics:
MD.VariableCell        .false.
MD.NumCGsteps          5000
MD.MaxForceTol        0.04 eV/Ang
MD.MaxStressTol       0.04 eV/Ang**3
#WriteMullikenPop       2
#%block ProjectedDensityOfStates
#   -15.00  +7.00  0.5  10000  eV
#%endblock ProjectedDensityOfStates
SaveDeltaRho                  .true.
SaveRho                       .true.
SaveElectrostaticPotential    .true.
SaveTotalPotential            .true.
WriteDenchar                  .true.
BandLinesScale               pi/a
#%block BandLines
#1     0.0 0.0 0.0 \Gamma
#30    1.0 0.0 0.0 X
#30    1.0 1.0 0.0 M
#40    0.0 0.0 0.0 \Gamma
#25    0.0 0.0 1.4868 Z
#30    1.0 0.0 1.4868 R
#30    1.0 1.0 1.4868 A
#%endblock BandLines
#%block LocalDensityOfStates
#   -14.5  6.0 eV
#%endblock LocalDensityOfStates
#WriteEigenvalues              .true.
#MD.TypeOfRun           FC
#MD.FCdispl             0.02000  Bohr
#MD.FCfirst             1     # Default value
#MD.FClast              6
#MD.BornCharge          1
#%block PolarizationGrids
#10  5  5
# 5 10  5
# 5  5 10
#%endblock PolarizationGrids
#
#WriteMullikenPop 1
#WriteHirshfeldPop T
#WriteVoronoiPop T
************************** End of input data file *****************************

reinit: -----------------------------------------------------------------------
reinit: System Name:                                                            
reinit: -----------------------------------------------------------------------
reinit: System Label: SnO2CG                                                      
reinit: -----------------------------------------------------------------------

initatom: Reading input for the pseudopotentials and atomic orbitals ----------
 Species number:            1  Label: O Atomic number:           8
 Species number:            2  Label: Sn Atomic number:          50
Ground state valence configuration:   2s02  2p04
Reading pseudopotential information in formatted form from O.psf
Ground state valence configuration:   5s02  5p02
Reading pseudopotential information in formatted form from Sn.psf
Semicore shell(s) with 10 electrons included in the valence for
Sn
For O, standard SIESTA heuristics set lmxkb to 3
 (one more than the basis l, including polarization orbitals).
Use PS.lmax or PS.KBprojectors blocks to override.
For Sn, standard SIESTA heuristics set lmxkb to 3
 (one more than the basis l, including polarization orbitals).
Use PS.lmax or PS.KBprojectors blocks to override.

<basis_specs>
===============================================================================
O                    Z=   8    Mass=  16.000        Charge=-0.24021    
Lmxo=2 Lmxkb=3     BasisType=split      Semic=F
L=0  Nsemic=0  Cnfigmx=2
          n=1  nzeta=2  polorb=0
               vcte:    64.357    
               rinn:    2.2409    
                rcs:    4.3971      2.5203    
            lambdas:    1.0000      1.0000    
L=1  Nsemic=0  Cnfigmx=2
          n=1  nzeta=2  polorb=0
               vcte:    7.9907    
               rinn:    4.8829    
                rcs:    6.1254      2.3098    
            lambdas:    1.0000      1.0000    
L=2  Nsemic=0  Cnfigmx=3
          n=1  nzeta=1  polorb=0
               vcte:    20.951    
               rinn:    3.0736    
                rcs:    5.0749    
            lambdas:    1.0000    
-------------------------------------------------------------------------------
L=0  Nkbl=1  erefs: 0.17977+309
L=1  Nkbl=1  erefs: 0.17977+309
L=2  Nkbl=1  erefs: 0.17977+309
L=3  Nkbl=1  erefs: 0.17977+309
===============================================================================
</basis_specs>

atom: Called for O   (Z =   8)

read_vps: Pseudopotential generation method:
read_vps: ATM3      Troullier-Martins                       

read_vps: Pseudopotential generated from a relativistic atomic calculation
read_vps: There are spin-orbit pseudopotentials available
read_vps: Spin-orbit interaction is not included in this calculation

read_vps: Valence configuration (pseudopotential and basis set generation):
2s( 2.00) rc: 1.14
2p( 4.00) rc: 1.14
3d( 0.00) rc: 1.14
4f( 0.00) rc: 1.14
Total valence charge:    6.00000

read_vps: Pseudopotential includes a core correction:
read_vps: Pseudo-core for xc-correction
comcore: Pseudo-core radius Rcore=  1.377587

xc_check: Exchange-correlation functional:
xc_check: GGA Perdew, Burke & Ernzerhof 1996
V l=0 = -2*Zval/r beyond r=  1.1278
V l=1 = -2*Zval/r beyond r=  1.1278
V l=2 = -2*Zval/r beyond r=  1.1278
V l=3 = -2*Zval/r beyond r=  1.1278
All V_l potentials equal beyond r=  1.1278
This should be close to max(r_c) in ps generation
All pots = -2*Zval/r beyond r=  1.1278

VLOCAL1: 99.0% of the norm of Vloc inside     34.126 Ry
VLOCAL1: 99.9% of the norm of Vloc inside     77.774 Ry
atom: Maximum radius for 4*pi*r*r*local-pseudopot. charge    1.37759
atom: Maximum radius for r*vlocal+2*Zval:    1.18566
GHOST: No ghost state for L =  0
GHOST: No ghost state for L =  1
GHOST: No ghost state for L =  2
GHOST: No ghost state for L =  3

KBgen: Kleinman-Bylander projectors: 
   l= 0   rc=  1.360471   el= -1.759790   Ekb=  9.203716   kbcos=  0.328912
   l= 1   rc=  1.360471   el= -0.663797   Ekb= -7.925462   kbcos= -0.392933
   l= 2   rc=  1.791199   el=  0.002031   Ekb= -1.951614   kbcos= -0.003497
   l= 3   rc=  2.107308   el=  0.003153   Ekb= -0.856427   kbcos= -0.000334

KBgen: Total number of  Kleinman-Bylander projectors:   16
atom: -------------------------------------------------------------------------

atom: SANKEY-TYPE ORBITALS:
atom: Selected multiple-zeta basis: split     

atom: basis set generated (by rescaling the valence charge)
atom: for an anion of charge  -0.2402

SPLIT: Orbitals with angular momentum L= 0

SPLIT: Basis orbitals for state 2s

   izeta = 1
                 lambda =    1.000000
                     rc =    4.461518
                 energy =   -1.750702
                kinetic =    1.567447
    potential(screened) =   -3.318149
       potential(ionic) =  -11.216628

   izeta = 2
                 rmatch =    2.510382
              splitnorm =    0.163668
                 energy =   -1.486947
                kinetic =    2.475157
    potential(screened) =   -3.962104
       potential(ionic) =  -12.490459

SPLIT: Orbitals with angular momentum L= 1

SPLIT: Basis orbitals for state 2p

   izeta = 1
                 lambda =    1.000000
                     rc =    6.174996
                 energy =   -0.657262
                kinetic =    4.301484
    potential(screened) =   -4.958746
       potential(ionic) =  -12.322156

   izeta = 2
                 rmatch =    2.328968
              splitnorm =    0.286751
                 energy =   -0.228282
                kinetic =    8.097394
    potential(screened) =   -8.325676
       potential(ionic) =  -17.136824

SPLIT: Orbitals with angular momentum L= 2

SPLIT: Basis orbitals for state 3d

   izeta = 1
                 lambda =    1.000000
                     rc =    5.055603
                 energy =    1.095167
                kinetic =    1.673851
    potential(screened) =   -0.578684
       potential(ionic) =   -4.880489
atom: Total number of Sankey-type orbitals: 13

atm_pop: Valence configuration(local Pseudopot. screening):
 2s( 2.00)                                                            
 2p( 4.00)                                                            
 3d( 0.00)                                                            
Vna: chval, zval:    6.00000   6.00000

Vna:  Cut-off radius for the neutral-atom potential:   6.174996

atom: _________________________________________________________________________

<basis_specs>
===============================================================================
Sn                   Z=  50    Mass=  118.71        Charge= 0.57189    
Lmxo=2 Lmxkb=3     BasisType=split      Semic=T
L=0  Nsemic=0  Cnfigmx=5
          n=1  nzeta=2  polorb=0
               vcte:    48.976    
               rinn:    3.1626    
                rcs:    4.5265      3.5176    
            lambdas:    1.0000      1.0000    
L=1  Nsemic=0  Cnfigmx=5
          n=1  nzeta=2  polorb=0
               vcte:   0.70334    
               rinn:   0.26859    
                rcs:    5.8156      3.6582    
            lambdas:    1.0000      1.0000    
L=2  Nsemic=1  Cnfigmx=5
          n=1  nzeta=1  polorb=0
               vcte:    68.000    
               rinn:    1.0000    
                rcs:    4.0000    
            lambdas:    1.0000    
          n=2  nzeta=2  polorb=0
               vcte:    68.330    
               rinn:   0.68970    
                rcs:    4.0000      3.5000    
            lambdas:    1.0000      1.0000    
-------------------------------------------------------------------------------
L=0  Nkbl=1  erefs: 0.17977+309
L=1  Nkbl=1  erefs: 0.17977+309
L=2  Nkbl=2  erefs: 0.17977+309 0.17977+309
L=3  Nkbl=1  erefs: 0.17977+309
===============================================================================
</basis_specs>

atom: Called for Sn  (Z =  50)

read_vps: Pseudopotential generation method:
read_vps: ATM3      Troullier-Martins                       

read_vps: Pseudopotential generated from a relativistic atomic calculation
read_vps: There are spin-orbit pseudopotentials available
read_vps: Spin-orbit interaction is not included in this calculation

read_vps: Valence configuration (pseudopotential and basis set generation):
5s( 2.00) rc: 2.49
5p( 2.00) rc: 2.28
4d(10.00) rc: 1.49
4f( 0.00) rc: 2.28
Total valence charge:   14.00000

read_vps: Pseudopotential includes a core correction:
read_vps: Pseudo-core for xc-correction
comcore: Pseudo-core radius Rcore=  3.405741

xc_check: Exchange-correlation functional:
xc_check: GGA Perdew, Burke & Ernzerhof 1996
V l=0 = -2*Zval/r beyond r=  2.6524
V l=1 = -2*Zval/r beyond r=  2.6524
V l=2 = -2*Zval/r beyond r=  2.6524
V l=3 = -2*Zval/r beyond r=  2.6524
All V_l potentials equal beyond r=  2.4607
This should be close to max(r_c) in ps generation
All pots = -2*Zval/r beyond r=  2.6524

VLOCAL1: 99.0% of the norm of Vloc inside      7.169 Ry
VLOCAL1: 99.9% of the norm of Vloc inside     16.338 Ry
atom: Maximum radius for 4*pi*r*r*local-pseudopot. charge    3.00555
atom: Maximum radius for r*vlocal+2*Zval:    2.65238
GHOST: No ghost state for L =  0
GHOST: No ghost state for L =  1
KBgen: More than one KB projector for l=  2
KBgen: ghost states analysis will be not performed
GHOST: No ghost state for L =  3

KBgen: Kleinman-Bylander projectors: 
   l= 0   rc=  2.719529   el= -0.772468   Ekb=  3.820268   kbcos=  0.336805
   l= 1   rc=  2.753737   el= -0.271791   Ekb=  2.366675   kbcos=  0.278429
   l= 2   rc=  2.523022   el= -1.900929   Ekb=-14.719765   kbcos= -0.741095
   l= 2   rc=  2.719529   el=  0.002066   Ekb= -6.499731   kbcos= -0.229283
   l= 3   rc=  2.788376   el=  0.003206   Ekb= -4.860164   kbcos= -0.015544

KBgen: Total number of  Kleinman-Bylander projectors:   21
atom: -------------------------------------------------------------------------

atom: SANKEY-TYPE ORBITALS:
atom: Selected multiple-zeta basis: split     

atom: basis set generated (by rescaling the valence charge)
atom: for a cation of charge   0.5719

SPLIT: Orbitals with angular momentum L= 0

SPLIT: Basis orbitals for state 5s

   izeta = 1
                 lambda =    1.000000
                     rc =    4.540177
                 energy =   -1.188423
                kinetic =    0.710615
    potential(screened) =   -1.899038
       potential(ionic) =  -13.869903

   izeta = 2
                 rmatch =    3.535883
              splitnorm =    0.394674
                 energy =   -0.752256
                kinetic =    1.458580
    potential(screened) =   -2.210836
       potential(ionic) =  -14.549169

SPLIT: Orbitals with angular momentum L= 1

SPLIT: Basis orbitals for state 5p

   izeta = 1
                 lambda =    1.000000
                     rc =    5.829717
                 energy =   -0.649499
                kinetic =    0.854821
    potential(screened) =   -1.504320
       potential(ionic) =  -11.415808

   izeta = 2
                 rmatch =    3.717174
              splitnorm =    0.472584
                 energy =   -0.162981
                kinetic =    1.750392
    potential(screened) =   -1.913373
       potential(ionic) =  -13.857470

SPLIT: Orbitals with angular momentum L= 2

SPLIT: Basis orbitals for state 4d

   izeta = 1
                 lambda =    1.000000
                     rc =    4.006687
                 energy =   -2.644762
                kinetic =   11.106599
    potential(screened) =  -13.751361
       potential(ionic) =  -31.154732

SPLIT: Basis orbitals for state 5d

   izeta = 1
                 lambda =    1.000000
                     rc =    4.006687
                 energy =    2.486903
                kinetic =    9.550822
    potential(screened) =   -7.063919
       potential(ionic) =  -20.805660

   izeta = 2
                 rmatch =    3.535883
              splitnorm =    0.000558
                 energy =    2.579665
                kinetic =   10.075982
    potential(screened) =   -7.496317
       potential(ionic) =  -21.415825
atom: Total number of Sankey-type orbitals: 23

atm_pop: Valence configuration(local Pseudopot. screening):
 5s( 2.00)                                                            
 5p( 2.00)                                                            
 4d(10.00) 5d( 0.00)                                                  
Vna: chval, zval:   14.00000  14.00000

Vna:  Cut-off radius for the neutral-atom potential:   5.829717

atom: _________________________________________________________________________

prinput: Basis input ----------------------------------------------------------

PAO.BasisType split     

%block ChemicalSpeciesLabel
    1    8 O                       # Species index, atomic number, species label
    2   50 Sn                      # Species index, atomic number, species label
%endblock ChemicalSpeciesLabel

%block PAO.Basis                 # Define Basis set
O           3  -0.240            # Label, l-shells, ionic net charge
 n=2   0   2                         # n, l, Nzeta 
   4.462      2.510   
   1.000      1.000   
 n=2   1   2                         # n, l, Nzeta 
   6.175      2.329   
   1.000      1.000   
 n=3   2   1                         # n, l, Nzeta 
   5.056   
   1.000   
Sn          4   0.572            # Label, l-shells, ionic net charge
 n=5   0   2                         # n, l, Nzeta 
   4.540      3.536   
   1.000      1.000   
 n=5   1   2                         # n, l, Nzeta 
   5.830      3.717   
   1.000      1.000   
 n=4   2   1                         # n, l, Nzeta 
   4.007   
   1.000   
 n=5   2   2                         # n, l, Nzeta 
   4.007      3.536   
   1.000      1.000   
%endblock PAO.Basis

prinput: ----------------------------------------------------------------------


siesta: ******************** Simulation parameters ****************************
siesta:
siesta: The following are some of the parameters of the simulation.
siesta: A complete list of the parameters used, including default values,
siesta: can be found in file out.fdf
siesta:
coor:   Atomic-coordinates input format  =     Fractional
redata: Number of spin components        =     1
redata: Long output                      =     F
redata: Number of Atomic Species         =     2
redata: Charge density info will appear in .RHO file
redata: Write Mulliken Pop.              =     NO
redata: Mesh Cutoff                      =   175.0000  Ry
redata: Net charge of the system         =     0.0000 |e|
redata: Max. number of SCF Iter          =   500
redata: Performing Pulay mixing using    =     8 iterations
redata: Mix DM in first SCF step ?       =     F
redata: Write Pulay info on disk?        =     F
redata: New DM Mixing Weight             =     0.0500
redata: New DM Occupancy tolerance       = 0.000000000001
redata: No kicks to SCF
redata: DM Mixing Weight for Kicks       =     0.5000
redata: DM Tolerance for SCF             =     0.000100
redata: Require Energy convergence for SCF =     F
redata: DM Energy tolerance for SCF      =     0.000100 eV
redata: Using Saved Data (generic)   =     T
redata: Use continuation files for DM    =     T
redata: Neglect nonoverlap interactions  =     F
redata: Method of Calculation            =     Diagonalization
redata: Divide and Conquer               =     T
redata: Electronic Temperature           =     0.0019  Ry
redata: Fix the spin of the system       =     F
redata: Dynamics option                  =     CG coord. optimization
redata: Variable cell                    =     F
redata: Use continuation files for CG    =     T
redata: Max atomic displ per move        =     0.2000  Bohr
redata: Maximum number of CG moves       =  5000
redata: Force tolerance                  =     0.0016  Ry/Bohr
redata: ***********************************************************************

siesta: WARNING: XV file not found

siesta: Atomic coordinates (Bohr) and species
siesta:      0.00000   0.00000   0.00000  2        1
siesta:      4.47601   4.47601   3.01033  2        2
siesta:      2.73028   2.73028   0.00000  1        3
siesta:      6.22136   6.22136   0.00000  1        4
siesta:      1.74573   7.20591   3.01033  1        5
siesta:      7.20591   1.74573   3.01033  1        6
siesta:      0.00000   0.00000   6.02067  2        7
siesta:      2.73028   2.73028   6.02067  1        8
siesta:      0.00000   0.00000  -6.02067  2        9
siesta:      4.47601   4.47601  -3.01033  2       10
siesta:      2.73028   2.73028  -6.02067  1       11
siesta:      1.74573   7.20591  -3.01033  1       12
siesta:      7.20591   1.74573  -3.01033  1       13
siesta:      0.00000   8.95164   0.00000  2       14
siesta:      8.95164   0.00000   0.00000  2       15
siesta:     -4.47601  -4.47601   3.01033  2       16
siesta:     -6.22136  -6.22136   0.00000  1       17
siesta:     -2.73028  -2.73028   0.00000  1       18
siesta:     -7.20591  -1.74573   3.01033  1       19
siesta:     -1.74573  -7.20591   3.01033  1       20
siesta:     -4.47601  -4.47601  -3.01033  2       21
siesta:     -2.73028  -2.73028  -6.02067  1       22
siesta:     -7.20591  -1.74573  -3.01033  1       23
siesta:     -1.74573  -7.20591  -3.01033  1       24
siesta:     -4.47601   4.47601  -3.01033  2       25
siesta:     -6.22136   2.73028  -6.02067  1       26
siesta:     -2.73028   6.22136  -6.02067  1       27
siesta:     -1.74573   1.74573  -3.01033  1       28
siesta:      4.47601  -4.47601  -3.01033  2       29
siesta:      2.73028  -6.22136  -6.02067  1       30
siesta:      6.22136  -2.73028  -6.02067  1       31
siesta:      1.74573  -1.74573  -3.01033  1       32
siesta:      0.00000  -8.95164   0.00000  2       33
siesta:      4.47601  -4.47601   3.01033  2       34
siesta:      2.73028  -6.22136   0.00000  1       35
siesta:      6.22136  -2.73028   0.00000  1       36
siesta:      1.74573  -1.74573   3.01033  1       37
siesta:     -8.95164   0.00000   0.00000  2       38
siesta:     -4.47601   4.47601   3.01033  2       39
siesta:     -6.22136   2.73028   0.00000  1       40
siesta:     -2.73028   6.22136   0.00000  1       41
siesta:     -1.74573   1.74573   3.01033  1       42
siesta:     -2.73028  -2.73028   6.02067  1       43
siesta:     -6.22136   2.73028   6.02067  1       44
siesta:     -2.73028   6.22136   6.02067  1       45
siesta:     -1.74573   1.74573   9.03100  1       46
siesta:      2.73028  -6.22136   6.02067  1       47
siesta:      6.22136  -2.73028   6.02067  1       48
siesta:      1.74573  -1.74573   9.03100  1       49
siesta:     -1.74573   1.74573  -9.03100  1       50
siesta:      1.74573  -1.74573  -9.03100  1       51

initatomlists: Number of atoms, orbitals, and projectors:     51   813   891

siesta: System type = molecule  

* Maximum dynamic memory allocated =     1 MB

siesta:                 ==============================
                            Begin CG move =      0
                        ==============================

outcell: Unit cell vectors (Ang):
       20.000000    0.000000    0.000000
        0.000000   20.000000    0.000000
        0.000000    0.000000   20.000000

outcell: Cell vector modules (Ang)   :   20.000000   20.000000   20.000000
outcell: Cell angles (23,13,12) (deg):     90.0000     90.0000     90.0000
outcell: Cell volume (Ang**3)        :   8000.0000

InitMesh: MESH =   160 x   160 x   160 =     4096000
InitMesh: Mesh cutoff (required, used) =   175.000   176.881 Ry

* Maximum dynamic memory allocated =   358 MB

stepf: Fermi-Dirac step function

siesta: Program's energy decomposition (eV):
siesta: Eions   =     57013.986361
siesta: Ena     =      7002.811430
siesta: Ekin    =     33269.864149
siesta: Enl     =    -19179.033839
siesta: DEna    =         0.000033
siesta: DUscf   =         0.000000
siesta: DUext   =         0.000000
siesta: Exc     =     -7529.237885
siesta: eta*DQ  =         0.000000
siesta: Emadel  =         0.000000
siesta: Ekinion =         0.000000
siesta: Eharris =    -44307.181496
siesta: Etot    =    -43449.582474
siesta: FreeEng =    -43449.582474

siesta: iscf   Eharris(eV)      E_KS(eV)   FreeEng(eV)   dDmax  Ef(eV)
siesta:    1   -44307.1815   -43449.5825   -43449.5825 50.3180 -8.7110
timer: Routine,Calls,Time,% = IterSCF        1      62.769  86.12
elaps: Routine,Calls,Wall,% = IterSCF        1     125.990  86.29
siesta:    2   -46975.4996   -42735.7778   -42735.9299160.4017 -2.5691
siesta:    3   -43929.0406   -43524.3048   -43524.3048  4.1557 -2.7600
siesta:    4   -43872.3155   -43530.1011   -43530.2525  4.7592 -3.3724
siesta:    5   -43851.1976   -43543.5698   -43543.5823  5.3806 -4.3227
siesta:    6   -43856.6468   -43600.5474   -43600.5718  4.9293 -5.0500
siesta:    7   -43836.1911   -43634.0389   -43634.1352  3.7179 -6.0369
siesta:    8   -43820.8331   -43662.8692   -43662.9699  2.6597 -7.0231
siesta:    9   -43819.2382   -43687.3959   -43687.4908  2.0480 -6.9985
siesta:   10   -43816.6195   -43721.8062   -43721.9185  1.8259 -6.4842
siesta:   11   -43816.5251   -43741.8439   -43741.9719  1.2534 -6.7520
siesta:   12   -43814.2034   -43755.4645   -43755.5791  1.0927 -6.6022
siesta:   13   -43814.9095   -43759.8097   -43759.9300  0.8881 -6.6675
siesta:   14   -43812.9274   -43783.9933   -43784.1357  0.5667 -6.4731
siesta:   15   -43812.5190   -43803.3565   -43803.4936  0.5467 -6.2994
siesta:   16   -43813.0001   -43806.2078   -43806.3541  0.6283 -6.3447
siesta:   17   -43812.3105   -43806.3319   -43806.4844  0.3503 -6.3529
siesta:   18   -43812.1993   -43809.0821   -43809.2383  0.4393 -6.3465
siesta:   19   -43812.0235   -43809.6660   -43809.8042  0.2911 -6.3542
siesta:   20   -43811.8282   -43809.9949   -43810.1348  0.1657 -6.3683
siesta:   21   -43811.8492   -43810.2751   -43810.4189  0.2080 -6.3716
siesta:   22   -43811.8480   -43811.6700   -43811.8085  0.2920 -6.3567
siesta:   23   -43811.7677   -43811.8250   -43811.9830  0.1290 -6.3791
siesta:   24   -43811.7559   -43812.0997   -43812.2488  0.1411 -6.3778
siesta:   25   -43811.7449   -43812.7551   -43812.9142  0.1371 -6.3712
siesta:   26   -43811.7636   -43812.5002   -43812.6655  0.1247 -6.3644
siesta:   27   -43811.7223   -43812.5527   -43812.7025  0.1139 -6.3622
siesta:   28   -43811.7402   -43812.4180   -43812.5865  0.1256 -6.3651
siesta:   29   -43811.7293   -43811.7848   -43811.9505  0.0930 -6.3714
siesta:   30   -43811.7355   -43811.0798   -43811.2469  0.1140 -6.3709
siesta:   31   -43811.7173   -43811.0431   -43811.2094  0.0740 -6.3690
siesta:   32   -43811.7174   -43810.6566   -43810.8324  0.0452 -6.3692
siesta:   33   -43811.7095   -43810.4614   -43810.6265  0.0374 -6.3685
siesta:   34   -43811.7145   -43810.4106   -43810.5821  0.0341 -6.3678
siesta:   35   -43811.7142   -43810.5618   -43810.7275  0.0265 -6.3660
siesta:   36   -43811.7157   -43810.7869   -43810.9523  0.0583 -6.3661
siesta:   37   -43811.7111   -43810.9341   -43811.1017  0.0166 -6.3654
siesta:   38   -43811.7131   -43811.0118   -43811.1799  0.0136 -6.3654
siesta:   39   -43811.7095   -43811.1941   -43811.3599  0.0115 -6.3657
siesta:   40   -43811.7102   -43811.2631   -43811.4324  0.0268 -6.3663
siesta:   41   -43811.7094   -43811.3347   -43811.5040  0.0138 -6.3670
siesta:   42   -43811.7094   -43811.3515   -43811.5205  0.0062 -6.3670
siesta:   43   -43811.7087   -43811.3835   -43811.5522  0.0077 -6.3670
siesta:   44   -43811.7086   -43811.4279   -43811.5976  0.0043 -6.3671
siesta:   45   -43811.7101   -43811.4290   -43811.5987  0.0048 -6.3671
siesta:   46   -43811.7089   -43811.4734   -43811.6418  0.0079 -6.3670
siesta:   47   -43811.7089   -43811.4680   -43811.6374  0.0049 -6.3668
siesta:   48   -43811.7092   -43811.4779   -43811.6475  0.0049 -6.3667
siesta:   49   -43811.7092   -43811.4969   -43811.6661  0.0050 -6.3667
siesta:   50   -43811.7093   -43811.5599   -43811.7290  0.0067 -6.3668
siesta:   51   -43811.7096   -43811.5803   -43811.7493  0.0046 -6.3668
siesta:   52   -43811.7099   -43811.6623   -43811.8309  0.0042 -6.3672
siesta:   53   -43811.7096   -43811.6754   -43811.8439  0.0018 -6.3672
siesta:   54   -43811.7095   -43811.6686   -43811.8372  0.0021 -6.3671
siesta:   55   -43811.7096   -43811.6950   -43811.8637  0.0013 -6.3672
siesta:   56   -43811.7095   -43811.7066   -43811.8752  0.0019 -6.3671
siesta:   57   -43811.7094   -43811.7135   -43811.8822  0.0024 -6.3670
siesta:   58   -43811.7095   -43811.7132   -43811.8820  0.0010 -6.3669
siesta:   59   -43811.7094   -43811.7214   -43811.8902  0.0009 -6.3669
siesta:   60   -43811.7095   -43811.7216   -43811.8904  0.0006 -6.3670
siesta:   61   -43811.7095   -43811.7228   -43811.8916  0.0008 -6.3670
siesta:   62   -43811.7095   -43811.7240   -43811.8927  0.0006 -6.3670
siesta:   63   -43811.7095   -43811.7220   -43811.8907  0.0005 -6.3670
siesta:   64   -43811.7094   -43811.7133   -43811.8819  0.0007 -6.3670
siesta:   65   -43811.7093   -43811.7084   -43811.8772  0.0006 -6.3670
siesta:   66   -43811.7094   -43811.7075   -43811.8762  0.0003 -6.3670
siesta:   67   -43811.7092   -43811.7054   -43811.8741  0.0003 -6.3669
siesta:   68   -43811.7094   -43811.7064   -43811.8752  0.0002 -6.3669
siesta:   69   -43811.7093   -43811.7059   -43811.8746  0.0002 -6.3669
siesta:   70   -43811.7093   -43811.7064   -43811.8752  0.0001 -6.3669
siesta:   71   -43811.7093   -43811.7068   -43811.8755  0.0001 -6.3669
siesta:   72   -43811.7092   -43811.7074   -43811.8761  0.0001 -6.3669
siesta:   73   -43811.7092   -43811.7078   -43811.8765  0.0001 -6.3669

siesta: E_KS(eV) =           -43811.7077

siesta: E_KS - E_eggbox =    -43811.7077

siesta: Atomic forces (eV/Ang):
----------------------------------------
   Tot   -0.000126   -0.000021   -0.000133
----------------------------------------
   Max    3.443575
   Res    0.995896    sqrt( Sum f_i^2 / 3N )
----------------------------------------
   Max    3.443575    constrained

Stress-tensor-Voigt (kbar):       -0.26       -0.26       -1.34       -1.84        0.00        0.00
Target enthalpy (eV/cell)   -43811.8764

cgvc: WARNING: CG file not found

* Maximum dynamic memory allocated =   358 MB

siesta:                 ==============================
                            Begin CG move =      1
                        ==============================

outcell: Unit cell vectors (Ang):
       20.000000    0.000000    0.000000
        0.000000   20.000000    0.000000
        0.000000    0.000000   20.000000

outcell: Cell vector modules (Ang)   :   20.000000   20.000000   20.000000
outcell: Cell angles (23,13,12) (deg):     90.0000     90.0000     90.0000
outcell: Cell volume (Ang**3)        :   8000.0000

siesta: iscf   Eharris(eV)      E_KS(eV)   FreeEng(eV)   dDmax  Ef(eV)
siesta:    1   -43813.5998   -43811.7594   -43811.9281  0.4250 -6.5155
siesta:    2   -44105.6357   -43788.5160   -43788.7071  4.3521 -3.2840
siesta:    3   -43816.3246   -43811.3636   -43811.3713  0.7898 -6.3953
siesta:    4   -43813.0042   -43811.4485   -43811.5642  0.5601 -6.3969
siesta:    5   -43813.1644   -43811.3621   -43811.5821  0.5411 -6.4013
siesta:    6   -43812.9760   -43811.3373   -43811.4792  0.6099 -6.3803
siesta:    7   -43812.9334   -43811.4157   -43811.5613  0.5472 -6.3872
siesta:    8   -43812.9011   -43811.6609   -43811.8085  0.4025 -6.3849
siesta:    9   -43813.6246   -43811.8103   -43812.0109  0.5884 -6.3946
siesta:   10   -43812.9932   -43811.8546   -43812.0195  0.2380 -6.3911
siesta:   11   -43813.1080   -43812.0012   -43812.1570  0.4113 -6.3892
siesta:   12   -43812.8625   -43812.0607   -43812.2124  0.1240 -6.3897
siesta:   13   -43812.8847   -43812.1382   -43812.3283  0.1241 -6.3882
siesta:   14   -43812.9016   -43812.1962   -43812.3742  0.2117 -6.3876
siesta:   15   -43812.8650   -43812.2920   -43812.4586  0.1251 -6.3921
siesta:   16   -43812.8604   -43812.3595   -43812.5391  0.0756 -6.3887
siesta:   17   -43812.8466   -43812.3767   -43812.5531  0.0746 -6.3871
siesta:   18   -43812.8520   -43812.4582   -43812.6375  0.0741 -6.3869
siesta:   19   -43812.8690   -43812.4898   -43812.6638  0.0893 -6.3858
siesta:   20   -43812.8692   -43812.5419   -43812.7053  0.1039 -6.3827
siesta:   21   -43812.8426   -43812.5894   -43812.7580  0.0734 -6.3835
siesta:   22   -43812.8517   -43812.6647   -43812.8496  0.0546 -6.3809
siesta:   23   -43812.8544   -43812.6752   -43812.8445  0.0467 -6.3808
siesta:   24   -43812.8475   -43812.6690   -43812.8366  0.0229 -6.3819
siesta:   25   -43812.8471   -43812.6817   -43812.8524  0.0185 -6.3817
siesta:   26   -43812.8465   -43812.7194   -43812.8900  0.0238 -6.3821
siesta:   27   -43812.8468   -43812.7855   -43812.9572  0.0287 -6.3841
siesta:   28   -43812.8450   -43812.8079   -43812.9794  0.0145 -6.3833
siesta:   29   -43812.8454   -43812.8054   -43812.9775  0.0084 -6.3831
siesta:   30   -43812.8470   -43812.8258   -43812.9972  0.0073 -6.3827
siesta:   31   -43812.8447   -43812.8199   -43812.9898  0.0083 -6.3825
siesta:   32   -43812.8469   -43812.8340   -43813.0063  0.0080 -6.3817
siesta:   33   -43812.8467   -43812.8360   -43813.0060  0.0043 -6.3817
siesta:   34   -43812.8464   -43812.8448   -43813.0149  0.0066 -6.3816
siesta:   35   -43812.8463   -43812.8457   -43813.0161  0.0029 -6.3815
siesta:   36   -43812.8469   -43812.8483   -43813.0189  0.0058 -6.3817
siesta:   37   -43812.8465   -43812.8491   -43813.0190  0.0026 -6.3816
siesta:   38   -43812.8465   -43812.8510   -43813.0214  0.0025 -6.3816
siesta:   39   -43812.8466   -43812.8514   -43813.0217  0.0024 -6.3817
siesta:   40   -43812.8467   -43812.8526   -43813.0230  0.0018 -6.3818
siesta:   41   -43812.8468   -43812.8505   -43813.0207  0.0015 -6.3817
siesta:   42   -43812.8465   -43812.8517   -43813.0217  0.0014 -6.3817
siesta:   43   -43812.8469   -43812.8513   -43813.0217  0.0017 -6.3817
siesta:   44   -43812.8469   -43812.8501   -43813.0201  0.0015 -6.3816
siesta:   45   -43812.8468   -43812.8507   -43813.0207  0.0017 -6.3817
siesta:   46   -43812.8468   -43812.8508   -43813.0209  0.0009 -6.3816
siesta:   47   -43812.8467   -43812.8506   -43813.0208  0.0006 -6.3816
siesta:   48   -43812.8467   -43812.8506   -43813.0207  0.0006 -6.3817
siesta:   49   -43812.8466   -43812.8502   -43813.0204  0.0005 -6.3817
siesta:   50   -43812.8467   -43812.8497   -43813.0199  0.0004 -6.3817
siesta:   51   -43812.8469   -43812.8483   -43813.0185  0.0004 -6.3817
siesta:   52   -43812.8468   -43812.8476   -43813.0177  0.0004 -6.3817
siesta:   53   -43812.8467   -43812.8471   -43813.0173  0.0002 -6.3817
siesta:   54   -43812.8468   -43812.8473   -43813.0175  0.0002 -6.3817
siesta:   55   -43812.8468   -43812.8472   -43813.0173  0.0001 -6.3817
siesta:   56   -43812.8468   -43812.8470   -43813.0172  0.0002 -6.3817
siesta:   57   -43812.8467   -43812.8470   -43813.0171  0.0001 -6.3817

siesta: E_KS(eV) =           -43812.8470

siesta: Atomic forces (eV/Ang):
----------------------------------------
   Tot   -0.000752    0.000488    0.000261
----------------------------------------
   Max    2.069413
   Res    0.759590    sqrt( Sum f_i^2 / 3N )
----------------------------------------
   Max    2.069413    constrained

Stress-tensor-Voigt (kbar):       -0.34       -0.34       -1.81       -1.33        0.00        0.00
Target enthalpy (eV/cell)   -43813.0172

* Maximum dynamic memory allocated =   358 MB

siesta:                 ==============================
                            Begin CG move =      2
                        ==============================

outcell: Unit cell vectors (Ang):
       20.000000    0.000000    0.000000
        0.000000   20.000000    0.000000
        0.000000    0.000000   20.000000

outcell: Cell vector modules (Ang)   :   20.000000   20.000000   20.000000
outcell: Cell angles (23,13,12) (deg):     90.0000     90.0000     90.0000
outcell: Cell volume (Ang**3)        :   8000.0000

siesta: iscf   Eharris(eV)      E_KS(eV)   FreeEng(eV)   dDmax  Ef(eV)
siesta:    1   -43815.6112   -43812.4543   -43812.6245  0.8927 -6.6490
siesta:    2   -44262.5086   -43770.3920   -43770.5711  4.8493 -3.2442
siesta:    3   -43821.8913   -43811.8570   -43811.8570  1.4527 -6.3074
siesta:    4   -43814.5378   -43812.0042   -43812.0959  0.9001 -6.4947
siesta:    5   -43814.2981   -43811.7690   -43811.8790  0.9211 -6.4145
siesta:    6   -43814.6253   -43811.4117   -43811.6229  1.0571 -6.3770
siesta:    7   -43814.6633   -43811.4640   -43811.6179  1.0180 -6.3866
siesta:    8   -43815.2791   -43811.4791   -43811.6431  0.8763 -6.3796
siesta:    9   -43815.4905   -43811.5822   -43811.7305  0.8316 -6.3805
siesta:   10   -43814.4842   -43811.7785   -43811.8905  0.5194 -6.4055
siesta:   11   -43814.3806   -43812.0846   -43812.2357  0.3372 -6.4068
siesta:   12   -43814.1481   -43812.1869   -43812.3221  0.2351 -6.4167
siesta:   13   -43814.1244   -43812.2376   -43812.3991  0.2141 -6.4159
siesta:   14   -43814.1484   -43812.2963   -43812.4594  0.2235 -6.4119
siesta:   15   -43814.1144   -43812.3585   -43812.5295  0.1886 -6.4164
siesta:   16   -43814.0344   -43812.5993   -43812.7475  0.1441 -6.4102
siesta:   17   -43814.0680   -43812.8589   -43813.0168  0.2695 -6.4119
siesta:   18   -43814.1016   -43812.8843   -43813.0412  0.3384 -6.4073
siesta:   19   -43813.9966   -43813.0198   -43813.1826  0.1034 -6.4094
siesta:   20   -43813.9778   -43813.1571   -43813.3147  0.0717 -6.4060
siesta:   21   -43813.9871   -43813.3002   -43813.4691  0.0830 -6.4079
siesta:   22   -43813.9795   -43813.3514   -43813.5156  0.0853 -6.4077
siesta:   23   -43813.9780   -43813.4536   -43813.6233  0.1097 -6.4051
siesta:   24   -43813.9839   -43813.5239   -43813.6966  0.0749 -6.4048
siesta:   25   -43813.9653   -43813.6548   -43813.8200  0.0440 -6.4049
siesta:   26   -43813.9709   -43813.6905   -43813.8672  0.0287 -6.4041
siesta:   27   -43813.9636   -43813.7618   -43813.9302  0.0275 -6.4038
siesta:   28   -43813.9681   -43813.7604   -43813.9366  0.0221 -6.4036
siesta:   29   -43813.9641   -43813.8605   -43814.0308  0.0398 -6.4045
siesta:   30   -43813.9687   -43813.9419   -43814.1161  0.0344 -6.4038
siesta:   31   -43813.9659   -43813.9231   -43814.0939  0.0433 -6.4043
siesta:   32   -43813.9629   -43813.9550   -43814.1298  0.0119 -6.4038
siesta:   33   -43813.9643   -43813.9919   -43814.1654  0.0098 -6.4037
siesta:   34   -43813.9642   -43814.0019   -43814.1738  0.0068 -6.4038
siesta:   35   -43813.9641   -43813.9801   -43814.1518  0.0116 -6.4038
siesta:   36   -43813.9653   -43813.9688   -43814.1408  0.0059 -6.4038
siesta:   37   -43813.9657   -43813.9670   -43814.1376  0.0057 -6.4038
siesta:   38   -43813.9649   -43813.9655   -43814.1358  0.0121 -6.4039
siesta:   39   -43813.9640   -43813.9562   -43814.1276  0.0103 -6.4039
siesta:   40   -43813.9652   -43813.9682   -43814.1404  0.0075 -6.4039
siesta:   41   -43813.9650   -43813.9574   -43814.1283  0.0039 -6.4041
siesta:   42   -43813.9647   -43813.9596   -43814.1304  0.0040 -6.4043
siesta:   43   -43813.9641   -43813.9667   -43814.1378  0.0027 -6.4044
siesta:   44   -43813.9644   -43813.9615   -43814.1330  0.0016 -6.4043
siesta:   45   -43813.9646   -43813.9634   -43814.1347  0.0024 -6.4043
siesta:   46   -43813.9644   -43813.9655   -43814.1366  0.0009 -6.4044
siesta:   47   -43813.9645   -43813.9670   -43814.1384  0.0008 -6.4043
siesta:   48   -43813.9643   -43813.9666   -43814.1381  0.0016 -6.4043
siesta:   49   -43813.9644   -43813.9663   -43814.1379  0.0012 -6.4043
siesta:   50   -43813.9644   -43813.9662   -43814.1376  0.0006 -6.4043
siesta:   51   -43813.9643   -43813.9661   -43814.1375  0.0004 -6.4043
siesta:   52   -43813.9642   -43813.9659   -43814.1373  0.0005 -6.4043
siesta:   53   -43813.9645   -43813.9648   -43814.1362  0.0003 -6.4043
siesta:   54   -43813.9645   -43813.9649   -43814.1363  0.0004 -6.4043
siesta:   55   -43813.9647   -43813.9649   -43814.1363  0.0004 -6.4043
siesta:   56   -43813.9646   -43813.9650   -43814.1364  0.0003 -6.4043
siesta:   57   -43813.9646   -43813.9649   -43814.1363  0.0002 -6.4043
siesta:   58   -43813.9645   -43813.9649   -43814.1364  0.0002 -6.4043
siesta:   59   -43813.9645   -43813.9649   -43814.1364  0.0004 -6.4043
siesta:   60   -43813.9644   -43813.9648   -43814.1363  0.0001 -6.4043
siesta:   61   -43813.9645   -43813.9649   -43814.1364  0.0001 -6.4043

siesta: E_KS(eV) =           -43813.9649

siesta: Atomic forces (eV/Ang):
----------------------------------------
   Tot   -0.000720    0.000618    0.000447
----------------------------------------
   Max    1.758586
   Res    0.548579    sqrt( Sum f_i^2 / 3N )
----------------------------------------
   Max    1.758586    constrained

Stress-tensor-Voigt (kbar):       -0.71       -0.71       -3.03       -0.58        0.00        0.00
Target enthalpy (eV/cell)   -43814.1363

* Maximum dynamic memory allocated =  2139 MB

siesta:                 ==============================
                            Begin CG move =      3
                        ==============================

outcell: Unit cell vectors (Ang):
       20.000000    0.000000    0.000000
        0.000000   20.000000    0.000000
        0.000000    0.000000   20.000000

outcell: Cell vector modules (Ang)   :   20.000000   20.000000   20.000000
outcell: Cell angles (23,13,12) (deg):     90.0000     90.0000     90.0000
outcell: Cell volume (Ang**3)        :   8000.0000

siesta: iscf   Eharris(eV)      E_KS(eV)   FreeEng(eV)   dDmax  Ef(eV)
siesta:    1   -43817.0599   -43812.2368   -43812.4082  1.1903 -6.8531
siesta:    2   -44375.2402   -43752.4740   -43752.6360  6.4958 -1.9929
siesta:    3   -43823.1426   -43811.3543   -43811.3584  1.3824 -6.3349
siesta:    4   -43815.4842   -43811.3180   -43811.4245  1.1054 -6.6764
siesta:    5   -43814.3770   -43810.7167   -43810.8164  1.0015 -6.4790
siesta:    6   -43814.8545   -43809.8398   -43809.9444  1.0109 -6.3993
siesta:    7   -43815.0456   -43809.6808   -43809.8270  0.9172 -6.4089
siesta:    8   -43816.4752   -43808.8330   -43808.9911  0.7312 -6.3870
siesta:    9   -43815.2687   -43808.8459   -43808.9522  0.5127 -6.4023
siesta:   10   -43814.6421   -43809.1151   -43809.2729  0.4309 -6.4297
siesta:   11   -43814.6192   -43809.4134   -43809.5146  0.4574 -6.4340
siesta:   12   -43814.4153   -43809.5592   -43809.6793  0.3283 -6.4579
siesta:   13   -43814.2776   -43809.4879   -43809.6018  0.2551 -6.4441
siesta:   14   -43814.2387   -43809.5269   -43809.6467  0.2261 -6.4371
siesta:   15   -43814.2387   -43809.5311   -43809.6596  0.2274 -6.4375
siesta:   16   -43814.2733   -43809.7989   -43809.9270  0.2305 -6.4405
siesta:   17   -43814.2585   -43810.1640   -43810.2902  0.2944 -6.4512
siesta:   18   -43814.1430   -43810.7068   -43810.8260  0.1487 -6.4525
siesta:   19   -43814.1402   -43811.2245   -43811.3578  0.1572 -6.4512
siesta:   20   -43814.1751   -43811.6899   -43811.8311  0.2451 -6.4477
siesta:   21   -43814.0962   -43812.2204   -43812.3754  0.1932 -6.4486
siesta:   22   -43814.0798   -43812.5418   -43812.6956  0.1637 -6.4419
siesta:   23   -43814.0498   -43812.6712   -43812.8294  0.0721 -6.4393
siesta:   24   -43814.0553   -43812.8470   -43813.0182  0.0657 -6.4402
siesta:   25   -43814.0490   -43812.9888   -43813.1529  0.0465 -6.4437
siesta:   26   -43814.0598   -43813.3721   -43813.5411  0.0987 -6.4428
siesta:   27   -43814.0507   -43813.4740   -43813.6378  0.0556 -6.4430
siesta:   28   -43814.0558   -43813.6449   -43813.8113  0.0847 -6.4477
siesta:   29   -43814.0619   -43813.7500   -43813.9158  0.0723 -6.4444
siesta:   30   -43814.0648   -43813.7432   -43813.8999  0.0905 -6.4442
siesta:   31   -43814.0516   -43813.8059   -43813.9652  0.0460 -6.4454
siesta:   32   -43814.0490   -43813.8195   -43813.9817  0.0387 -6.4452
siesta:   33   -43814.0505   -43813.8497   -43814.0141  0.0188 -6.4449
siesta:   34   -43814.0496   -43813.8806   -43814.0420  0.0168 -6.4448
siesta:   35   -43814.0497   -43813.9846   -43814.1466  0.0240 -6.4431
siesta:   36   -43814.0499   -43813.9957   -43814.1579  0.0133 -6.4428
siesta:   37   -43814.0488   -43814.0203   -43814.1819  0.0074 -6.4431
siesta:   38   -43814.0499   -43814.0347   -43814.1971  0.0154 -6.4431
siesta:   39   -43814.0494   -43814.0568   -43814.2184  0.0193 -6.4431
siesta:   40   -43814.0483   -43814.0622   -43814.2242  0.0122 -6.4435
siesta:   41   -43814.0483   -43814.0776   -43814.2406  0.0040 -6.4435
siesta:   42   -43814.0485   -43814.0748   -43814.2378  0.0035 -6.4436
siesta:   43   -43814.0487   -43814.0729   -43814.2357  0.0026 -6.4436
siesta:   44   -43814.0485   -43814.0675   -43814.2301  0.0024 -6.4436
siesta:   45   -43814.0484   -43814.0642   -43814.2270  0.0057 -6.4435
siesta:   46   -43814.0483   -43814.0604   -43814.2234  0.0018 -6.4435
siesta:   47   -43814.0482   -43814.0560   -43814.2188  0.0016 -6.4434
siesta:   48   -43814.0482   -43814.0557   -43814.2183  0.0022 -6.4434
siesta:   49   -43814.0481   -43814.0545   -43814.2173  0.0013 -6.4434
siesta:   50   -43814.0481   -43814.0518   -43814.2146  0.0013 -6.4434
siesta:   51   -43814.0480   -43814.0520   -43814.2147  0.0009 -6.4435
siesta:   52   -43814.0480   -43814.0512   -43814.2139  0.0015 -6.4435
siesta:   53   -43814.0482   -43814.0515   -43814.2143  0.0006 -6.4435
siesta:   54   -43814.0481   -43814.0524   -43814.2152  0.0017 -6.4435
siesta:   55   -43814.0483   -43814.0512   -43814.2140  0.0005 -6.4435
siesta:   56   -43814.0483   -43814.0503   -43814.2131  0.0004 -6.4435
siesta:   57   -43814.0482   -43814.0502   -43814.2129  0.0003 -6.4435
siesta:   58   -43814.0482   -43814.0499   -43814.2128  0.0003 -6.4435
siesta:   59   -43814.0482   -43814.0498   -43814.2126  0.0002 -6.4435
siesta:   60   -43814.0482   -43814.0497   -43814.2124  0.0002 -6.4435
siesta:   61   -43814.0483   -43814.0494   -43814.2122  0.0003 -6.4435
siesta:   62   -43814.0482   -43814.0493   -43814.2121  0.0001 -6.4435
siesta:   63   -43814.0482   -43814.0494   -43814.2122  0.0001 -6.4435
siesta:   64   -43814.0482   -43814.0492   -43814.2120  0.0001 -6.4435

siesta: E_KS(eV) =           -43814.0491

siesta: Atomic forces (eV/Ang):
----------------------------------------
   Tot   -0.000693    0.000383    0.000055
----------------------------------------
   Max    3.333868
   Res    0.971834    sqrt( Sum f_i^2 / 3N )
----------------------------------------
   Max    3.333868    constrained

Stress-tensor-Voigt (kbar):       -2.11       -2.11       -6.43        0.31        0.00        0.00
Target enthalpy (eV/cell)   -43814.2119

* Maximum dynamic memory allocated =  2139 MB

siesta:                 ==============================
                            Begin CG move =      4
                        ==============================

outcell: Unit cell vectors (Ang):
       20.000000    0.000000    0.000000
        0.000000   20.000000    0.000000
        0.000000    0.000000   20.000000

outcell: Cell vector modules (Ang)   :   20.000000   20.000000   20.000000
outcell: Cell angles (23,13,12) (deg):     90.0000     90.0000     90.0000
outcell: Cell volume (Ang**3)        :   8000.0000

siesta: iscf   Eharris(eV)      E_KS(eV)   FreeEng(eV)   dDmax  Ef(eV)
siesta:    1   -43815.3490   -43814.7880   -43814.9508  0.5589 -6.3057
siesta:    2   -43951.5316   -43794.4131   -43794.5543  2.2462 -5.4156
siesta:    3   -43824.9111   -43813.2981   -43813.5305  0.6645 -6.5517
siesta:    4   -43815.8438   -43814.1030   -43814.2109  0.6202 -6.5308
siesta:    5   -43814.7307   -43814.1646   -43814.3065  0.5560 -6.5081
siesta:    6   -43814.5252   -43814.2342   -43814.3544  0.5467 -6.4744
siesta:    7   -43814.4915   -43814.2463   -43814.4190  0.5255 -6.4682
siesta:    8   -43815.7136   -43814.2396   -43814.4154  0.5613 -6.4756
siesta:    9   -43814.5994   -43814.2466   -43814.3348  0.4257 -6.4333
siesta:   10   -43814.5761   -43814.2097   -43814.3943  0.5027 -6.4273
siesta:   11   -43814.3327   -43814.2251   -43814.4314  0.2034 -6.4172
siesta:   12   -43814.3345   -43814.2616   -43814.4542  0.1750 -6.4148
siesta:   13   -43814.3659   -43814.2370   -43814.3998  0.2548 -6.4279
siesta:   14   -43814.4374   -43814.1967   -43814.3425  0.3370 -6.4338
siesta:   15   -43814.4418   -43814.1600   -43814.3267  0.3402 -6.4428
siesta:   16   -43814.3332   -43814.1439   -43814.2997  0.1789 -6.4425
siesta:   17   -43814.3162   -43814.1424   -43814.3196  0.1842 -6.4396
siesta:   18   -43814.2922   -43814.1420   -43814.3197  0.0829 -6.4332
siesta:   19   -43814.3084   -43814.1317   -43814.2944  0.1287 -6.4362
siesta:   20   -43814.2918   -43814.1354   -43814.2973  0.1400 -6.4355
siesta:   21   -43814.3068   -43814.1439   -43814.3214  0.1267 -6.4299
siesta:   22   -43814.3079   -43814.1378   -43814.2992  0.1070 -6.4282
siesta:   23   -43814.2776   -43814.1421   -43814.2975  0.0348 -6.4242
siesta:   24   -43814.2916   -43814.1501   -43814.3159  0.0651 -6.4214
siesta:   25   -43814.3059   -43814.1499   -43814.3082  0.1417 -6.4219
siesta:   26   -43814.2787   -43814.1522   -43814.3151  0.0376 -6.4211
siesta:   27   -43814.2789   -43814.1648   -43814.3295  0.0429 -6.4219
siesta:   28   -43814.2752   -43814.1850   -43814.3488  0.0267 -6.4235
siesta:   29   -43814.2730   -43814.1948   -43814.3613  0.0262 -6.4240
siesta:   30   -43814.2731   -43814.1949   -43814.3633  0.0137 -6.4236
siesta:   31   -43814.2701   -43814.2095   -43814.3770  0.0229 -6.4238
siesta:   32   -43814.2741   -43814.2219   -43814.3924  0.0232 -6.4232
siesta:   33   -43814.2714   -43814.2295   -43814.3958  0.0107 -6.4232
siesta:   34   -43814.2717   -43814.2309   -43814.3993  0.0125 -6.4228
siesta:   35   -43814.2719   -43814.2388   -43814.4069  0.0108 -6.4225
siesta:   36   -43814.2721   -43814.2403   -43814.4083  0.0104 -6.4226
siesta:   37   -43814.2720   -43814.2477   -43814.4156  0.0119 -6.4225
siesta:   38   -43814.2712   -43814.2484   -43814.4163  0.0113 -6.4226
siesta:   39   -43814.2713   -43814.2528   -43814.4216  0.0062 -6.4226
siesta:   40   -43814.2714   -43814.2566   -43814.4253  0.0054 -6.4228
siesta:   41   -43814.2711   -43814.2591   -43814.4276  0.0056 -6.4231
siesta:   42   -43814.2711   -43814.2596   -43814.4283  0.0036 -6.4231
siesta:   43   -43814.2712   -43814.2611   -43814.4299  0.0035 -6.4232
siesta:   44   -43814.2711   -43814.2652   -43814.4340  0.0020 -6.4233
siesta:   45   -43814.2709   -43814.2655   -43814.4346  0.0024 -6.4233
siesta:   46   -43814.2707   -43814.2668   -43814.4360  0.0019 -6.4233
siesta:   47   -43814.2708   -43814.2682   -43814.4375  0.0027 -6.4233
siesta:   48   -43814.2708   -43814.2677   -43814.4369  0.0013 -6.4232
siesta:   49   -43814.2706   -43814.2683   -43814.4374  0.0009 -6.4233
siesta:   50   -43814.2708   -43814.2698   -43814.4390  0.0005 -6.4232
siesta:   51   -43814.2707   -43814.2698   -43814.4389  0.0007 -6.4232
siesta:   52   -43814.2707   -43814.2701   -43814.4393  0.0016 -6.4232
siesta:   53   -43814.2706   -43814.2701   -43814.4393  0.0004 -6.4233
siesta:   54   -43814.2706   -43814.2702   -43814.4394  0.0005 -6.4233
siesta:   55   -43814.2705   -43814.2702   -43814.4394  0.0004 -6.4233
siesta:   56   -43814.2706   -43814.2707   -43814.4399  0.0008 -6.4233
siesta:   57   -43814.2708   -43814.2708   -43814.4399  0.0002 -6.4233
siesta:   58   -43814.2707   -43814.2708   -43814.4400  0.0001 -6.4233
siesta:   59   -43814.2708   -43814.2709   -43814.4401  0.0002 -6.4232
siesta:   60   -43814.2707   -43814.2708   -43814.4400  0.0002 -6.4232
siesta:   61   -43814.2707   -43814.2708   -43814.4400  0.0002 -6.4232
siesta:   62   -43814.2706   -43814.2707   -43814.4399  0.0007 -6.4232
siesta:   63   -43814.2707   -43814.2707   -43814.4398  0.0002 -6.4232
siesta:   64   -43814.2706   -43814.2705   -43814.4397  0.0001 -6.4232

siesta: E_KS(eV) =           -43814.2706

siesta: Atomic forces (eV/Ang):
----------------------------------------
   Tot   -0.000706    0.000608    0.000309
----------------------------------------
   Max    1.905553
   Res    0.670857    sqrt( Sum f_i^2 / 3N )
----------------------------------------
   Max    1.905553    constrained

Stress-tensor-Voigt (kbar):       -1.30       -1.30       -4.58       -0.09        0.00        0.00
Target enthalpy (eV/cell)   -43814.4398

cgvc: Finished line minimization    1.  Mean atomic displacement =    0.1082

* Maximum dynamic memory allocated =  2139 MB

siesta:                 ==============================
                            Begin CG move =      5
                        ==============================

outcell: Unit cell vectors (Ang):
       20.000000    0.000000    0.000000
        0.000000   20.000000    0.000000
        0.000000    0.000000   20.000000

outcell: Cell vector modules (Ang)   :   20.000000   20.000000   20.000000
outcell: Cell angles (23,13,12) (deg):     90.0000     90.0000     90.0000
outcell: Cell volume (Ang**3)        :   8000.0000

siesta: iscf   Eharris(eV)      E_KS(eV)   FreeEng(eV)   dDmax  Ef(eV)
siesta:    1   -43819.6726   -43811.6697   -43811.8388  1.5887 -7.1160
siesta:    2   -44111.4556   -43789.1413   -43789.3065  6.3717 -2.3903
siesta:    3   -43821.3771   -43811.4915   -43811.5674  1.4212 -6.7128
siesta:    4   -43817.3153   -43811.3443   -43811.3662  1.2737 -6.5640
siesta:    5   -43819.5080   -43810.5711   -43810.7475  0.7211 -6.3360
siesta:    6   -43817.6937   -43810.7032   -43810.8842  0.8064 -6.3736
siesta:    7   -43817.3069   -43810.8338   -43811.0374  0.7534 -6.3910
siesta:    8   -43820.0333   -43811.0168   -43811.1453  0.6777 -6.3097
siesta:    9   -43819.0579   -43811.4297   -43811.5284  0.6927 -6.4080
siesta:   10   -43818.2192   -43811.5698   -43811.6424  0.5765 -6.3647
siesta:   11   -43817.0124   -43811.8883   -43811.9712  0.3872 -6.4610
siesta:   12   -43817.3042   -43812.1858   -43812.3022  0.6763 -6.3870
siesta:   13   -43816.3618   -43812.3708   -43812.4663  0.2587 -6.4147
siesta:   14   -43816.4426   -43812.7114   -43812.8337  0.3308 -6.4176
siesta:   15   -43816.7186   -43812.9518   -43813.0566  0.5055 -6.4221
siesta:   16   -43816.3861   -43813.3250   -43813.4120  0.2628 -6.4513
siesta:   17   -43816.3117   -43813.6420   -43813.7551  0.3136 -6.4497
siesta:   18   -43816.2962   -43813.8559   -43813.9634  0.2061 -6.4413
siesta:   19   -43816.3105   -43814.0569   -43814.1759  0.2538 -6.4527
siesta:   20   -43816.3384   -43814.1242   -43814.2329  0.3333 -6.4462
siesta:   21   -43816.2348   -43814.3139   -43814.4342  0.1657 -6.4528
siesta:   22   -43816.1898   -43814.4841   -43814.6236  0.1397 -6.4450
siesta:   23   -43816.2528   -43815.0197   -43815.1521  0.3845 -6.4435
siesta:   24   -43816.1831   -43814.9740   -43815.0984  0.1803 -6.4458
siesta:   25   -43816.1682   -43815.1151   -43815.2562  0.2071 -6.4476
siesta:   26   -43816.1480   -43815.2299   -43815.3695  0.0853 -6.4462
siesta:   27   -43816.1423   -43815.3847   -43815.5289  0.0668 -6.4460
siesta:   28   -43816.1440   -43815.5163   -43815.6628  0.0727 -6.4482
siesta:   29   -43816.1669   -43815.9673   -43816.1143  0.1365 -6.4516
siesta:   30   -43816.1431   -43815.9381   -43816.0797  0.1102 -6.4543
siesta:   31   -43816.1713   -43816.1281   -43816.2850  0.2205 -6.4526
siesta:   32   -43816.1462   -43816.2092   -43816.3474  0.0678 -6.4524
siesta:   33   -43816.1516   -43816.1525   -43816.2988  0.1621 -6.4514
siesta:   34   -43816.1470   -43816.2439   -43816.3908  0.1343 -6.4517
siesta:   35   -43816.1351   -43816.3032   -43816.4520  0.0440 -6.4494
siesta:   36   -43816.1418   -43816.2968   -43816.4475  0.0801 -6.4467
siesta:   37   -43816.1335   -43816.4166   -43816.5668  0.0402 -6.4473
siesta:   38   -43816.1348   -43816.4211   -43816.5728  0.0349 -6.4462
siesta:   39   -43816.1312   -43816.4198   -43816.5700  0.0239 -6.4463
siesta:   40   -43816.1335   -43816.3232   -43816.4757  0.0249 -6.4476
siesta:   41   -43816.1308   -43816.2452   -43816.3954  0.0342 -6.4488
siesta:   42   -43816.1322   -43816.2273   -43816.3807  0.0248 -6.4483
siesta:   43   -43816.1323   -43816.2129   -43816.3637  0.0520 -6.4486
siesta:   44   -43816.1317   -43816.1763   -43816.3283  0.0133 -6.4487
siesta:   45   -43816.1321   -43816.1655   -43816.3165  0.0263 -6.4487
siesta:   46   -43816.1318   -43816.1382   -43816.2893  0.0184 -6.4485
siesta:   47   -43816.1322   -43816.1458   -43816.2966  0.0246 -6.4484
siesta:   48   -43816.1309   -43816.1433   -43816.2942  0.0130 -6.4481
siesta:   49   -43816.1321   -43816.1347   -43816.2866  0.0079 -6.4480
siesta:   50   -43816.1315   -43816.1389   -43816.2895  0.0034 -6.4478
siesta:   51   -43816.1317   -43816.1433   -43816.2944  0.0059 -6.4478
siesta:   52   -43816.1314   -43816.1413   -43816.2922  0.0027 -6.4479
siesta:   53   -43816.1313   -43816.1446   -43816.2957  0.0039 -6.4481
siesta:   54   -43816.1314   -43816.1428   -43816.2939  0.0024 -6.4481
siesta:   55   -43816.1316   -43816.1416   -43816.2927  0.0025 -6.4482
siesta:   56   -43816.1315   -43816.1378   -43816.2890  0.0038 -6.4483
siesta:   57   -43816.1315   -43816.1378   -43816.2888  0.0022 -6.4483
siesta:   58   -43816.1315   -43816.1367   -43816.2877  0.0012 -6.4483
siesta:   59   -43816.1316   -43816.1347   -43816.2859  0.0018 -6.4483
siesta:   60   -43816.1318   -43816.1354   -43816.2865  0.0024 -6.4483
siesta:   61   -43816.1316   -43816.1314   -43816.2824  0.0010 -6.4482
siesta:   62   -43816.1315   -43816.1318   -43816.2829  0.0019 -6.4482
siesta:   63   -43816.1315   -43816.1304   -43816.2815  0.0008 -6.4482
siesta:   64   -43816.1315   -43816.1304   -43816.2815  0.0002 -6.4482
siesta:   65   -43816.1315   -43816.1302   -43816.2813  0.0006 -6.4482
siesta:   66   -43816.1316   -43816.1305   -43816.2816  0.0003 -6.4482
siesta:   67   -43816.1315   -43816.1303   -43816.2813  0.0002 -6.4483
siesta:   68   -43816.1316   -43816.1303   -43816.2813  0.0005 -6.4483
siesta:   69   -43816.1316   -43816.1305   -43816.2816  0.0002 -6.4483
siesta:   70   -43816.1316   -43816.1305   -43816.2815  0.0005 -6.4483
siesta:   71   -43816.1316   -43816.1307   -43816.2818  0.0002 -6.4483
siesta:   72   -43816.1316   -43816.1307   -43816.2817  0.0004 -6.4483
siesta:   73   -43816.1317   -43816.1309   -43816.2820  0.0001 -6.4483

siesta: E_KS(eV) =           -43816.1311

siesta: Atomic forces (eV/Ang):
----------------------------------------
   Tot   -0.000601    0.000579    0.000369
----------------------------------------
   Max    1.370661
   Res    0.448473    sqrt( Sum f_i^2 / 3N )
----------------------------------------
   Max    1.370661    constrained

Stress-tensor-Voigt (kbar):       -1.14       -1.14       -6.36        1.73        0.00        0.00
Target enthalpy (eV/cell)   -43816.2821

* Maximum dynamic memory allocated =  2139 MB

siesta:                 ==============================
                            Begin CG move =      6
                        ==============================

outcell: Unit cell vectors (Ang):
       20.000000    0.000000    0.000000
        0.000000   20.000000    0.000000
        0.000000    0.000000   20.000000

outcell: Cell vector modules (Ang)   :   20.000000   20.000000   20.000000
outcell: Cell angles (23,13,12) (deg):     90.0000     90.0000     90.0000
outcell: Cell volume (Ang**3)        :   8000.0000

siesta: iscf   Eharris(eV)      E_KS(eV)   FreeEng(eV)   dDmax  Ef(eV)
siesta:    1   -43818.2156   -43811.8753   -43812.0263  1.4861 -7.1118
siesta:    2   -44033.9901   -43796.6069   -43796.7736  3.0651 -2.4846
siesta:    3   -43823.5607   -43811.7298   -43811.8426  1.1313 -6.5468
siesta:    4   -43815.9636   -43811.7142   -43811.7366  0.9347 -6.6696
siesta:    5   -43816.1768   -43811.4763   -43811.6312  0.5800 -6.4112
siesta:    6   -43816.9788   -43811.6586   -43811.8275  0.4807 -6.4855
siesta:    7   -43818.2180   -43812.0231   -43812.1275  0.5179 -6.2933
siesta:    8   -43818.3180   -43812.4429   -43812.5689  0.6094 -6.5405
siesta:    9   -43817.0764   -43812.7098   -43812.7999  0.4968 -6.4800
siesta:   10   -43817.2823   -43812.8962   -43812.9637  0.8162 -6.5077
siesta:   11   -43816.4136   -43813.1762   -43813.2599  0.4901 -6.4929
siesta:   12   -43816.1458   -43813.3783   -43813.4693  0.3713 -6.5504
siesta:   13   -43816.0146   -43813.4967   -43813.6020  0.3036 -6.5417
siesta:   14   -43815.8868   -43813.6689   -43813.8005  0.2766 -6.5413
siesta:   15   -43815.8096   -43813.7662   -43813.8912  0.1042 -6.5401
siesta:   16   -43815.8062   -43813.8242   -43813.9571  0.1248 -6.5377
siesta:   17   -43815.8608   -43813.9585   -43814.0915  0.2887 -6.5393
siesta:   18   -43815.7981   -43814.1944   -43814.3140  0.1628 -6.5396
siesta:   19   -43815.7629   -43814.2919   -43814.4259  0.1327 -6.5377
siesta:   20   -43815.7572   -43814.5148   -43814.6605  0.1054 -6.5462
siesta:   21   -43815.7542   -43814.5648   -43814.7113  0.1496 -6.5464
siesta:   22   -43815.7514   -43814.7127   -43814.8604  0.1228 -6.5522
siesta:   23   -43815.7688   -43814.9473   -43815.0966  0.1777 -6.5617
siesta:   24   -43815.7551   -43814.9977   -43815.1446  0.1391 -6.5646
siesta:   25   -43815.7368   -43815.1931   -43815.3415  0.0406 -6.5673
siesta:   26   -43815.7354   -43815.3509   -43815.5027  0.0366 -6.5681
siesta:   27   -43815.7372   -43815.4437   -43815.5981  0.0947 -6.5678
siesta:   28   -43815.7372   -43815.4407   -43815.5937  0.0462 -6.5638
siesta:   29   -43815.7343   -43815.6412   -43815.7928  0.0610 -6.5571
siesta:   30   -43815.7321   -43815.7199   -43815.8740  0.0579 -6.5585
siesta:   31   -43815.7356   -43815.6556   -43815.8115  0.0805 -6.5576
siesta:   32   -43815.7316   -43815.7024   -43815.8559  0.0266 -6.5569
siesta:   33   -43815.7330   -43815.7281   -43815.8829  0.0502 -6.5580
siesta:   34   -43815.7298   -43815.7465   -43815.9016  0.0079 -6.5580
siesta:   35   -43815.7301   -43815.7361   -43815.8920  0.0139 -6.5585
siesta:   36   -43815.7306   -43815.7197   -43815.8754  0.0119 -6.5587
siesta:   37   -43815.7300   -43815.7265   -43815.8816  0.0067 -6.5583
siesta:   38   -43815.7299   -43815.7201   -43815.8756  0.0140 -6.5577
siesta:   39   -43815.7305   -43815.7123   -43815.8681  0.0116 -6.5574
siesta:   40   -43815.7306   -43815.7059   -43815.8612  0.0068 -6.5569
siesta:   41   -43815.7303   -43815.7088   -43815.8639  0.0068 -6.5566
siesta:   42   -43815.7305   -43815.7130   -43815.8682  0.0155 -6.5567
siesta:   43   -43815.7305   -43815.7203   -43815.8756  0.0050 -6.5566
siesta:   44   -43815.7301   -43815.7280   -43815.8832  0.0034 -6.5567
siesta:   45   -43815.7300   -43815.7329   -43815.8884  0.0016 -6.5570
siesta:   46   -43815.7301   -43815.7338   -43815.8893  0.0021 -6.5571
siesta:   47   -43815.7300   -43815.7319   -43815.8874  0.0029 -6.5572
siesta:   48   -43815.7300   -43815.7337   -43815.8891  0.0009 -6.5572
siesta:   49   -43815.7299   -43815.7337   -43815.8892  0.0009 -6.5573
siesta:   50   -43815.7300   -43815.7315   -43815.8870  0.0020 -6.5573
siesta:   51   -43815.7300   -43815.7304   -43815.8859  0.0003 -6.5573
siesta:   52   -43815.7300   -43815.7302   -43815.8857  0.0006 -6.5572
siesta:   53   -43815.7301   -43815.7296   -43815.8851  0.0010 -6.5572
siesta:   54   -43815.7301   -43815.7294   -43815.8848  0.0006 -6.5572
siesta:   55   -43815.7303   -43815.7300   -43815.8854  0.0003 -6.5572
siesta:   56   -43815.7301   -43815.7307   -43815.8862  0.0009 -6.5573
siesta:   57   -43815.7302   -43815.7302   -43815.8857  0.0003 -6.5573
siesta:   58   -43815.7301   -43815.7305   -43815.8859  0.0001 -6.5573
siesta:   59   -43815.7301   -43815.7308   -43815.8863  0.0002 -6.5573
siesta:   60   -43815.7301   -43815.7308   -43815.8863  0.0002 -6.5573
siesta:   61   -43815.7301   -43815.7308   -43815.8863  0.0003 -6.5573
siesta:   62   -43815.7301   -43815.7308   -43815.8863  0.0001 -6.5573

siesta: E_KS(eV) =           -43815.7307

siesta: Atomic forces (eV/Ang):
----------------------------------------
   Tot   -0.000450    0.000112   -0.000142
----------------------------------------
   Max    2.444634
   Res    0.906327    sqrt( Sum f_i^2 / 3N )
----------------------------------------
   Max    2.444634    constrained

Stress-tensor-Voigt (kbar):       -1.06       -1.06       -9.85        3.45        0.00        0.00
Target enthalpy (eV/cell)   -43815.8862

* Maximum dynamic memory allocated =  2148 MB

siesta:                 ==============================
                            Begin CG move =      7
                        ==============================

outcell: Unit cell vectors (Ang):
       20.000000    0.000000    0.000000
        0.000000   20.000000    0.000000
        0.000000    0.000000   20.000000

outcell: Cell vector modules (Ang)   :   20.000000   20.000000   20.000000
outcell: Cell angles (23,13,12) (deg):     90.0000     90.0000     90.0000
outcell: Cell volume (Ang**3)        :   8000.0000

siesta: iscf   Eharris(eV)      E_KS(eV)   FreeEng(eV)   dDmax  Ef(eV)
siesta:    1   -43818.9022   -43817.8938   -43818.0493  1.3818 -6.1183
siesta:    2   -44042.5535   -43779.0599   -43779.1895  3.4147 -4.8145
siesta:    3   -43828.7537   -43813.8678   -43814.0346  0.7789 -7.0158
siesta:    4   -43818.7621   -43814.9932   -43815.0955  0.6253 -6.7403
siesta:    5   -43818.5677   -43815.1505   -43815.3280  0.5905 -6.8248
siesta:    6   -43817.2185   -43815.2306   -43815.3356  0.5542 -6.7408
siesta:    7   -43817.0896   -43815.2566   -43815.3851  0.5901 -6.6990
siesta:    8   -43818.2012   -43815.1755   -43815.3401  0.5677 -6.5169
siesta:    9   -43817.3754   -43814.9378   -43815.0147  0.5161 -6.5147
siesta:   10   -43817.8257   -43814.7396   -43814.8668  0.6145 -6.5431
siesta:   11   -43816.5109   -43814.7457   -43814.8147  0.2785 -6.5381
siesta:   12   -43816.8391   -43814.6811   -43814.8160  0.4731 -6.5381
siesta:   13   -43816.6719   -43814.6632   -43814.7614  0.4786 -6.5148
siesta:   14   -43816.4661   -43814.7004   -43814.7944  0.3504 -6.5007
siesta:   15   -43816.4765   -43814.7443   -43814.8584  0.2763 -6.4982
siesta:   16   -43816.4737   -43814.7998   -43814.9345  0.3553 -6.4969
siesta:   17   -43816.4986   -43814.8587   -43814.9820  0.3404 -6.5004
siesta:   18   -43816.3104   -43814.9439   -43815.0568  0.1483 -6.4967
siesta:   19   -43816.3342   -43815.1066   -43815.2411  0.1989 -6.4942
siesta:   20   -43816.3240   -43815.1841   -43815.3137  0.1967 -6.4938
siesta:   21   -43816.4028   -43815.3209   -43815.4733  0.3673 -6.4931
siesta:   22   -43816.2786   -43815.3929   -43815.5125  0.1223 -6.4897
siesta:   23   -43816.3328   -43815.5069   -43815.6462  0.2605 -6.4902
siesta:   24   -43816.2950   -43815.5915   -43815.7349  0.1870 -6.4854
siesta:   25   -43816.3663   -43815.5998   -43815.7441  0.2662 -6.4859
siesta:   26   -43816.2878   -43815.7371   -43815.8642  0.1587 -6.4864
siesta:   27   -43816.2607   -43815.8068   -43815.9496  0.0779 -6.4830
siesta:   28   -43816.2592   -43815.9863   -43816.1350  0.0595 -6.4798
siesta:   29   -43816.2667   -43816.0372   -43816.1847  0.1122 -6.4789
siesta:   30   -43816.2532   -43816.0989   -43816.2485  0.0634 -6.4772
siesta:   31   -43816.2700   -43816.1100   -43816.2645  0.0935 -6.4782
siesta:   32   -43816.2631   -43816.1456   -43816.2888  0.0941 -6.4773
siesta:   33   -43816.2633   -43816.1791   -43816.3260  0.1235 -6.4763
siesta:   34   -43816.2559   -43816.1653   -43816.3120  0.0493 -6.4774
siesta:   35   -43816.2527   -43816.1992   -43816.3474  0.0448 -6.4768
siesta:   36   -43816.2512   -43816.2036   -43816.3538  0.0333 -6.4771
siesta:   37   -43816.2513   -43816.2041   -43816.3552  0.0159 -6.4774
siesta:   38   -43816.2513   -43816.2222   -43816.3727  0.0457 -6.4772
siesta:   39   -43816.2514   -43816.2294   -43816.3816  0.0317 -6.4776
siesta:   40   -43816.2493   -43816.2591   -43816.4096  0.0053 -6.4776
siesta:   41   -43816.2489   -43816.2640   -43816.4162  0.0057 -6.4774
siesta:   42   -43816.2495   -43816.2645   -43816.4169  0.0057 -6.4774
siesta:   43   -43816.2492   -43816.2661   -43816.4181  0.0189 -6.4776
siesta:   44   -43816.2490   -43816.2662   -43816.4185  0.0075 -6.4777
siesta:   45   -43816.2495   -43816.2586   -43816.4112  0.0108 -6.4781
siesta:   46   -43816.2491   -43816.2579   -43816.4097  0.0058 -6.4782
siesta:   47   -43816.2497   -43816.2508   -43816.4029  0.0098 -6.4784
siesta:   48   -43816.2493   -43816.2515   -43816.4032  0.0031 -6.4785
siesta:   49   -43816.2492   -43816.2484   -43816.4004  0.0033 -6.4785
siesta:   50   -43816.2495   -43816.2471   -43816.3989  0.0053 -6.4784
siesta:   51   -43816.2491   -43816.2460   -43816.3978  0.0021 -6.4784
siesta:   52   -43816.2491   -43816.2464   -43816.3983  0.0023 -6.4783
siesta:   53   -43816.2492   -43816.2470   -43816.3989  0.0024 -6.4783
siesta:   54   -43816.2491   -43816.2486   -43816.4006  0.0006 -6.4783
siesta:   55   -43816.2491   -43816.2490   -43816.4010  0.0010 -6.4783
siesta:   56   -43816.2492   -43816.2493   -43816.4014  0.0006 -6.4783
siesta:   57   -43816.2491   -43816.2490   -43816.4011  0.0018 -6.4783
siesta:   58   -43816.2491   -43816.2490   -43816.4011  0.0008 -6.4783
siesta:   59   -43816.2491   -43816.2490   -43816.4010  0.0012 -6.4783
siesta:   60   -43816.2491   -43816.2489   -43816.4009  0.0004 -6.4783
siesta:   61   -43816.2491   -43816.2485   -43816.4005  0.0004 -6.4783
siesta:   62   -43816.2490   -43816.2487   -43816.4007  0.0010 -6.4783
siesta:   63   -43816.2492   -43816.2486   -43816.4007  0.0002 -6.4783
siesta:   64   -43816.2492   -43816.2486   -43816.4007  0.0003 -6.4783
siesta:   65   -43816.2491   -43816.2487   -43816.4007  0.0003 -6.4783
siesta:   66   -43816.2492   -43816.2489   -43816.4009  0.0001 -6.4783
siesta:   67   -43816.2492   -43816.2489   -43816.4009  0.0002 -6.4783
siesta:   68   -43816.2492   -43816.2489   -43816.4010  0.0001 -6.4783

siesta: E_KS(eV) =           -43816.2490

siesta: Atomic forces (eV/Ang):
----------------------------------------
   Tot   -0.000558    0.000346    0.000255
----------------------------------------
   Max    1.683656
   Res    0.557443    sqrt( Sum f_i^2 / 3N )
----------------------------------------
   Max    1.683656    constrained

Stress-tensor-Voigt (kbar):       -1.13       -1.13       -7.32        2.32        0.00        0.00
Target enthalpy (eV/cell)   -43816.4010

cgvc: Finished line minimization    2.  Mean atomic displacement =    0.1189

* Maximum dynamic memory allocated =  2148 MB

siesta:                 ==============================
                            Begin CG move =      8
                        ==============================

outcell: Unit cell vectors (Ang):
       20.000000    0.000000    0.000000
        0.000000   20.000000    0.000000
        0.000000    0.000000   20.000000

outcell: Cell vector modules (Ang)   :   20.000000   20.000000   20.000000
outcell: Cell angles (23,13,12) (deg):     90.0000     90.0000     90.0000
outcell: Cell volume (Ang**3)        :   8000.0000

siesta: iscf   Eharris(eV)      E_KS(eV)   FreeEng(eV)   dDmax  Ef(eV)
siesta:    1   -43818.5863   -43812.7867   -43812.9388  1.1175 -6.8059
siesta:    2   -43844.6393   -43815.4788   -43815.6243  2.0117 -5.9668
siesta:    3   -43817.9978   -43814.3109   -43814.3381  0.7131 -6.5821
siesta:    4   -43819.9172   -43815.3027   -43815.4873  0.6077 -6.5615
siesta:    5   -43818.0971   -43815.4597   -43815.5800  0.5909 -6.4806
siesta:    6   -43818.7592   -43815.6701   -43815.7960  0.6377 -6.5020
siesta:    7   -43818.7843   -43815.8036   -43815.8716  0.5502 -6.4929
siesta:    8   -43818.1617   -43816.0400   -43816.0995  0.4670 -6.5904
siesta:    9   -43818.1378   -43816.3877   -43816.5016  0.4461 -6.5941
siesta:   10   -43818.6515   -43816.5623   -43816.6417  0.5258 -6.6144
siesta:   11   -43818.1973   -43816.7534   -43816.8712  0.3500 -6.6299
siesta:   12   -43818.1101   -43816.8641   -43816.9927  0.4142 -6.5963
siesta:   13   -43817.9351   -43816.9501   -43817.0303  0.2864 -6.6001
siesta:   14   -43817.7887   -43816.9945   -43817.1045  0.1474 -6.5939
siesta:   15   -43817.8645   -43817.0210   -43817.1404  0.2574 -6.6033
siesta:   16   -43817.8217   -43817.0592   -43817.1791  0.1589 -6.6012
siesta:   17   -43817.7996   -43817.0928   -43817.2126  0.1517 -6.6012
siesta:   18   -43817.7644   -43817.1695   -43817.2916  0.1379 -6.6058
siesta:   19   -43817.8141   -43817.2419   -43817.3695  0.2475 -6.6161
siesta:   20   -43817.7148   -43817.2464   -43817.3845  0.1494 -6.6095
siesta:   21   -43817.7148   -43817.2709   -43817.4066  0.1597 -6.6110
siesta:   22   -43817.7243   -43817.2925   -43817.4267  0.1417 -6.6126
siesta:   23   -43817.6984   -43817.2219   -43817.3557  0.1099 -6.6072
siesta:   24   -43817.7831   -43817.2701   -43817.4083  0.2802 -6.6137
siesta:   25   -43817.7476   -43817.2887   -43817.4157  0.2678 -6.6115
siesta:   26   -43817.6851   -43817.2470   -43817.3817  0.0999 -6.6067
siesta:   27   -43817.6880   -43817.2540   -43817.3938  0.1046 -6.6075
siesta:   28   -43817.6935   -43817.2625   -43817.4016  0.1269 -6.6083
siesta:   29   -43817.6853   -43817.2677   -43817.4094  0.0974 -6.6087
siesta:   30   -43817.6890   -43817.3310   -43817.4713  0.1023 -6.6144
siesta:   31   -43817.6729   -43817.3515   -43817.4977  0.0634 -6.6143
siesta:   32   -43817.6630   -43817.4317   -43817.5773  0.0347 -6.6171
siesta:   33   -43817.6737   -43817.5185   -43817.6676  0.1064 -6.6196
siesta:   34   -43817.6630   -43817.5214   -43817.6702  0.1070 -6.6190
siesta:   35   -43817.6649   -43817.5210   -43817.6733  0.1362 -6.6186
siesta:   36   -43817.6755   -43817.5093   -43817.6597  0.1278 -6.6172
siesta:   37   -43817.6575   -43817.5573   -43817.7037  0.0426 -6.6174
siesta:   38   -43817.6586   -43817.5777   -43817.7296  0.1009 -6.6153
siesta:   39   -43817.6567   -43817.6080   -43817.7619  0.0402 -6.6167
siesta:   40   -43817.6539   -43817.6221   -43817.7745  0.0441 -6.6148
siesta:   41   -43817.6538   -43817.6089   -43817.7640  0.0447 -6.6153
siesta:   42   -43817.6536   -43817.6199   -43817.7740  0.0361 -6.6152
siesta:   43   -43817.6520   -43817.6268   -43817.7811  0.0273 -6.6151
siesta:   44   -43817.6515   -43817.6350   -43817.7904  0.0169 -6.6155
siesta:   45   -43817.6518   -43817.6501   -43817.8057  0.0307 -6.6165
siesta:   46   -43817.6518   -43817.6490   -43817.8045  0.0075 -6.6167
siesta:   47   -43817.6510   -43817.6574   -43817.8127  0.0133 -6.6168
siesta:   48   -43817.6514   -43817.6462   -43817.8023  0.0185 -6.6164
siesta:   49   -43817.6513   -43817.6529   -43817.8088  0.0148 -6.6169
siesta:   50   -43817.6517   -43817.6548   -43817.8105  0.0103 -6.6171
siesta:   51   -43817.6514   -43817.6531   -43817.8085  0.0087 -6.6170
siesta:   52   -43817.6513   -43817.6501   -43817.8056  0.0033 -6.6168
siesta:   53   -43817.6513   -43817.6486   -43817.8042  0.0022 -6.6168
siesta:   54   -43817.6513   -43817.6474   -43817.8030  0.0019 -6.6167
siesta:   55   -43817.6515   -43817.6463   -43817.8018  0.0017 -6.6167
siesta:   56   -43817.6513   -43817.6476   -43817.8032  0.0017 -6.6167
siesta:   57   -43817.6515   -43817.6485   -43817.8041  0.0017 -6.6167
siesta:   58   -43817.6515   -43817.6489   -43817.8044  0.0015 -6.6167
siesta:   59   -43817.6514   -43817.6501   -43817.8057  0.0021 -6.6167
siesta:   60   -43817.6514   -43817.6494   -43817.8051  0.0013 -6.6167
siesta:   61   -43817.6514   -43817.6500   -43817.8056  0.0004 -6.6167
siesta:   62   -43817.6513   -43817.6501   -43817.8057  0.0006 -6.6167
siesta:   63   -43817.6514   -43817.6504   -43817.8060  0.0004 -6.6167
siesta:   64   -43817.6514   -43817.6504   -43817.8060  0.0002 -6.6167
siesta:   65   -43817.6515   -43817.6505   -43817.8061  0.0002 -6.6167
siesta:   66   -43817.6514   -43817.6507   -43817.8063  0.0004 -6.6167
siesta:   67   -43817.6514   -43817.6506   -43817.8062  0.0005 -6.6167
siesta:   68   -43817.6513   -43817.6509   -43817.8066  0.0001 -6.6167
siesta:   69   -43817.6513   -43817.6510   -43817.8066  0.0001 -6.6167
siesta:   70   -43817.6513   -43817.6511   -43817.8067  0.0001 -6.6167
siesta:   71   -43817.6513   -43817.6512   -43817.8068  0.0001 -6.6167
siesta:   72   -43817.6513   -43817.6512   -43817.8069  0.0001 -6.6167

siesta: E_KS(eV) =           -43817.6512

siesta: Atomic forces (eV/Ang):
----------------------------------------
   Tot   -0.000833    0.000459   -0.000318
----------------------------------------
   Max    1.186270
   Res    0.391043    sqrt( Sum f_i^2 / 3N )
----------------------------------------
   Max    1.186270    constrained

Stress-tensor-Voigt (kbar):       -0.70       -0.70       -3.31        1.87        0.00        0.00
Target enthalpy (eV/cell)   -43817.8068

* Maximum dynamic memory allocated =  2148 MB

siesta:                 ==============================
                            Begin CG move =      9
                        ==============================

outcell: Unit cell vectors (Ang):
       20.000000    0.000000    0.000000
        0.000000   20.000000    0.000000
        0.000000    0.000000   20.000000

outcell: Cell vector modules (Ang)   :   20.000000   20.000000   20.000000
outcell: Cell angles (23,13,12) (deg):     90.0000     90.0000     90.0000
outcell: Cell volume (Ang**3)        :   8000.0000

siesta: iscf   Eharris(eV)      E_KS(eV)   FreeEng(eV)   dDmax  Ef(eV)
siesta:    1   -43818.1487   -43813.1767   -43813.3323  1.2085 -6.8826
siesta:    2   -43839.1223   -43814.5105   -43814.6549  1.0922 -6.1559
siesta:    3   -43822.6622   -43814.7705   -43814.8814  0.7475 -6.4565
siesta:    4   -43817.7979   -43815.0695   -43815.2069  0.6591 -6.6455
siesta:    5   -43820.7805   -43815.3305   -43815.4821  0.6284 -6.4526
siesta:    6   -43819.0451   -43815.4795   -43815.5537  0.5539 -6.7195
siesta:    7   -43818.7586   -43815.5739   -43815.6874  0.4916 -6.6776
siesta:    8   -43818.2151   -43815.6890   -43815.7683  0.4781 -6.6408
siesta:    9   -43818.5111   -43815.8817   -43815.9683  0.6903 -6.6907
siesta:   10   -43817.6848   -43815.9821   -43816.0825  0.2836 -6.6629
siesta:   11   -43817.4420   -43816.1186   -43816.2196  0.2308 -6.6487
siesta:   12   -43817.4298   -43816.1897   -43816.3017  0.2052 -6.6524
siesta:   13   -43817.3847   -43816.2288   -43816.3405  0.1944 -6.6579
siesta:   14   -43817.5040   -43816.3429   -43816.4642  0.3634 -6.6757
siesta:   15   -43817.4101   -43816.4471   -43816.5742  0.2825 -6.6819
siesta:   16   -43817.4660   -43816.4547   -43816.5946  0.4140 -6.6861
siesta:   17   -43817.3280   -43816.5445   -43816.6563  0.2977 -6.6975
siesta:   18   -43817.2605   -43816.6000   -43816.7236  0.1211 -6.7004
siesta:   19   -43817.2457   -43816.7034   -43816.8421  0.1129 -6.7126
siesta:   20   -43817.2386   -43816.7002   -43816.8442  0.1205 -6.7081
siesta:   21   -43817.2577   -43816.7569   -43816.9051  0.1758 -6.7152
siesta:   22   -43817.2291   -43816.7842   -43816.9271  0.0776 -6.7149
siesta:   23   -43817.2401   -43816.8466   -43816.9930  0.1519 -6.7161
siesta:   24   -43817.2221   -43816.8784   -43817.0250  0.1262 -6.7174
siesta:   25   -43817.2353   -43816.9158   -43817.0697  0.1854 -6.7210
siesta:   26   -43817.2143   -43816.9616   -43817.1122  0.0666 -6.7223
siesta:   27   -43817.2137   -43817.0325   -43817.1853  0.1506 -6.7262
siesta:   28   -43817.2138   -43817.0456   -43817.2043  0.1212 -6.7298
siesta:   29   -43817.1957   -43817.0847   -43817.2404  0.0356 -6.7302
siesta:   30   -43817.2028   -43817.0996   -43817.2659  0.0454 -6.7327
siesta:   31   -43817.1987   -43817.1091   -43817.2692  0.0324 -6.7323
siesta:   32   -43817.1991   -43817.1435   -43817.3061  0.0496 -6.7326
siesta:   33   -43817.2120   -43817.1195   -43817.2821  0.1011 -6.7305
siesta:   34   -43817.2005   -43817.1516   -43817.3118  0.0491 -6.7297
siesta:   35   -43817.1980   -43817.1567   -43817.3182  0.0206 -6.7283
siesta:   36   -43817.1972   -43817.1706   -43817.3330  0.0118 -6.7286
siesta:   37   -43817.1977   -43817.1782   -43817.3409  0.0258 -6.7291
siesta:   38   -43817.1963   -43817.1896   -43817.3524  0.0163 -6.7289
siesta:   39   -43817.1955   -43817.1946   -43817.3580  0.0071 -6.7289
siesta:   40   -43817.1965   -43817.1913   -43817.3552  0.0126 -6.7291
siesta:   41   -43817.1957   -43817.1927   -43817.3556  0.0025 -6.7291
siesta:   42   -43817.1957   -43817.1910   -43817.3547  0.0102 -6.7291
siesta:   43   -43817.1959   -43817.1936   -43817.3573  0.0036 -6.7292
siesta:   44   -43817.1961   -43817.1947   -43817.3582  0.0032 -6.7292
siesta:   45   -43817.1958   -43817.1972   -43817.3608  0.0048 -6.7292
siesta:   46   -43817.1957   -43817.1961   -43817.3597  0.0040 -6.7292
siesta:   47   -43817.1957   -43817.1970   -43817.3608  0.0057 -6.7292
siesta:   48   -43817.1956   -43817.1983   -43817.3621  0.0017 -6.7291
siesta:   49   -43817.1956   -43817.1989   -43817.3627  0.0021 -6.7291
siesta:   50   -43817.1959   -43817.1980   -43817.3618  0.0038 -6.7291
siesta:   51   -43817.1957   -43817.1979   -43817.3614  0.0044 -6.7291
siesta:   52   -43817.1955   -43817.1977   -43817.3615  0.0033 -6.7291
siesta:   53   -43817.1959   -43817.1965   -43817.3603  0.0015 -6.7291
siesta:   54   -43817.1958   -43817.1956   -43817.3592  0.0005 -6.7291
siesta:   55   -43817.1958   -43817.1953   -43817.3590  0.0003 -6.7291
siesta:   56   -43817.1959   -43817.1954   -43817.3590  0.0006 -6.7291
siesta:   57   -43817.1959   -43817.1954   -43817.3590  0.0005 -6.7291
siesta:   58   -43817.1959   -43817.1956   -43817.3593  0.0006 -6.7291
siesta:   59   -43817.1958   -43817.1955   -43817.3592  0.0002 -6.7291
siesta:   60   -43817.1958   -43817.1957   -43817.3594  0.0003 -6.7291
siesta:   61   -43817.1958   -43817.1956   -43817.3593  0.0004 -6.7291
[...]
siesta:   53   -43825.6501   -43825.6521   -43825.9118  0.0121 -6.7585
siesta:   54   -43825.6471   -43825.6526   -43825.9123  0.0254 -6.7586
siesta:   55   -43825.6479   -43825.6524   -43825.9152  0.0192 -6.7586
siesta:   56   -43825.6504   -43825.6514   -43825.9133  0.0195 -6.7585
siesta:   57   -43825.6491   -43825.6517   -43825.9109  0.0068 -6.7585
siesta:   58   -43825.6490   -43825.6521   -43825.9127  0.0164 -6.7586
siesta:   59   -43825.6491   -43825.6517   -43825.9123  0.0117 -6.7585
siesta:   60   -43825.6485   -43825.6518   -43825.9123  0.0094 -6.7586
siesta:   61   -43825.6486   -43825.6517   -43825.9128  0.0041 -6.7586
siesta:   62   -43825.6486   -43825.6516   -43825.9125  0.0042 -6.7586
siesta:   63   -43825.6497   -43825.6514   -43825.9123  0.0097 -6.7585
siesta:   64   -43825.6492   -43825.6513   -43825.9112  0.0077 -6.7585
siesta:   65   -43825.6479   -43825.6513   -43825.9116  0.0090 -6.7586
siesta:   66   -43825.6489   -43825.6513   -43825.9129  0.0034 -6.7585
siesta:   67   -43825.6491   -43825.6511   -43825.9118  0.0155 -6.7585
siesta:   68   -43825.6488   -43825.6508   -43825.9114  0.0106 -6.7585
siesta:   69   -43825.6497   -43825.6511   -43825.9119  0.0142 -6.7585
siesta:   70   -43825.6492   -43825.6511   -43825.9111  0.0050 -6.7585
siesta:   71   -43825.6492   -43825.6511   -43825.9114  0.0035 -6.7585
siesta:   72   -43825.6485   -43825.6511   -43825.9114  0.0046 -6.7586
siesta:   73   -43825.6488   -43825.6510   -43825.9121  0.0029 -6.7585
siesta:   74   -43825.6494   -43825.6508   -43825.9117  0.0048 -6.7585
siesta:   75   -43825.6489   -43825.6509   -43825.9111  0.0024 -6.7585
siesta:   76   -43825.6488   -43825.6506   -43825.9113  0.0090 -6.7585
siesta:   77   -43825.6489   -43825.6506   -43825.9113  0.0071 -6.7585
siesta:   78   -43825.6485   -43825.6506   -43825.9113  0.0119 -6.7586
siesta:   79   -43825.6487   -43825.6506   -43825.9117  0.0051 -6.7585
siesta:   80   -43825.6487   -43825.6506   -43825.9115  0.0045 -6.7585
siesta:   81   -43825.6496   -43825.6504   -43825.9113  0.0070 -6.7585
siesta:   82   -43825.6493   -43825.6504   -43825.9105  0.0052 -6.7585
siesta:   83   -43825.6484   -43825.6504   -43825.9108  0.0051 -6.7586
siesta:   84   -43825.6488   -43825.6504   -43825.9117  0.0023 -6.7585
siesta:   85   -43825.6489   -43825.6503   -43825.9110  0.0045 -6.7585
siesta:   86   -43825.6488   -43825.6503   -43825.9110  0.0042 -6.7585
siesta:   87   -43825.6492   -43825.6502   -43825.9109  0.0069 -6.7585
siesta:   88   -43825.6489   -43825.6500   -43825.9104  0.0030 -6.7585
siesta:   89   -43825.6490   -43825.6503   -43825.9109  0.0034 -6.7585
siesta:   90   -43825.6481   -43825.6501   -43825.9107  0.0056 -6.7586
siesta:   91   -43825.6485   -43825.6499   -43825.9113  0.0041 -6.7585
siesta:   92   -43825.6493   -43825.6498   -43825.9108  0.0056 -6.7585
siesta:   93   -43825.6488   -43825.6500   -43825.9103  0.0038 -6.7585
siesta:   94   -43825.6488   -43825.6498   -43825.9105  0.0052 -6.7585
siesta:   95   -43825.6489   -43825.6499   -43825.9107  0.0040 -6.7585
siesta:   96   -43825.6487   -43825.6498   -43825.9105  0.0038 -6.7585
siesta:   97   -43825.6487   -43825.6497   -43825.9106  0.0017 -6.7585
siesta:   98   -43825.6488   -43825.6498   -43825.9106  0.0025 -6.7585
siesta:   99   -43825.6491   -43825.6497   -43825.9105  0.0026 -6.7585
siesta:  100   -43825.6489   -43825.6496   -43825.9100  0.0022 -6.7585
siesta:  101   -43825.6484   -43825.6497   -43825.9104  0.0030 -6.7585
siesta:  102   -43825.6487   -43825.6495   -43825.9106  0.0026 -6.7585
siesta:  103   -43825.6487   -43825.6494   -43825.9101  0.0037 -6.7585
siesta:  104   -43825.6488   -43825.6496   -43825.9103  0.0040 -6.7585
siesta:  105   -43825.6489   -43825.6494   -43825.9102  0.0042 -6.7585
siesta:  106   -43825.6487   -43825.6494   -43825.9100  0.0015 -6.7585
siesta:  107   -43825.6487   -43825.6494   -43825.9102  0.0024 -6.7585
siesta:  108   -43825.6484   -43825.6495   -43825.9102  0.0019 -6.7585
siesta:  109   -43825.6486   -43825.6494   -43825.9105  0.0013 -6.7585
siesta:  110   -43825.6488   -43825.6494   -43825.9102  0.0015 -6.7585
siesta:  111   -43825.6488   -43825.6494   -43825.9100  0.0014 -6.7585
siesta:  112   -43825.6488   -43825.6494   -43825.9102  0.0017 -6.7585
siesta:  113   -43825.6488   -43825.6494   -43825.9102  0.0022 -6.7585
siesta:  114   -43825.6486   -43825.6493   -43825.9100  0.0020 -6.7585
siesta:  115   -43825.6487   -43825.6493   -43825.9101  0.0015 -6.7585
siesta:  116   -43825.6488   -43825.6493   -43825.9101  0.0022 -6.7585
siesta:  117   -43825.6490   -43825.6493   -43825.9100  0.0024 -6.7585
siesta:  118   -43825.6489   -43825.6493   -43825.9098  0.0014 -6.7585
siesta:  119   -43825.6485   -43825.6493   -43825.9100  0.0016 -6.7585
siesta:  120   -43825.6487   -43825.6493   -43825.9102  0.0009 -6.7585
siesta:  121   -43825.6487   -43825.6492   -43825.9101  0.0012 -6.7585
siesta:  122   -43825.6487   -43825.6493   -43825.9101  0.0015 -6.7585
siesta:  123   -43825.6488   -43825.6493   -43825.9101  0.0011 -6.7585
siesta:  124   -43825.6488   -43825.6493   -43825.9100  0.0006 -6.7585
siesta:  125   -43825.6487   -43825.6492   -43825.9100  0.0013 -6.7585
siesta:  126   -43825.6485   -43825.6492   -43825.9100  0.0014 -6.7585
siesta:  127   -43825.6487   -43825.6492   -43825.9102  0.0013 -6.7585
siesta:  128   -43825.6489   -43825.6491   -43825.9100  0.0019 -6.7585
siesta:  129   -43825.6488   -43825.6491   -43825.9097  0.0012 -6.7585
siesta:  130   -43825.6487   -43825.6491   -43825.9099  0.0014 -6.7585
siesta:  131   -43825.6488   -43825.6491   -43825.9099  0.0017 -6.7585
siesta:  132   -43825.6487   -43825.6491   -43825.9099  0.0011 -6.7585
siesta:  133   -43825.6488   -43825.6492   -43825.9100  0.0008 -6.7585
siesta:  134   -43825.6488   -43825.6491   -43825.9099  0.0010 -6.7585
siesta:  135   -43825.6489   -43825.6491   -43825.9099  0.0012 -6.7585
siesta:  136   -43825.6488   -43825.6492   -43825.9098  0.0011 -6.7585
siesta:  137   -43825.6485   -43825.6491   -43825.9099  0.0017 -6.7585
siesta:  138   -43825.6487   -43825.6490   -43825.9100  0.0007 -6.7585
siesta:  139   -43825.6487   -43825.6491   -43825.9099  0.0013 -6.7585
siesta:  140   -43825.6487   -43825.6490   -43825.9098  0.0015 -6.7585
siesta:  141   -43825.6488   -43825.6490   -43825.9098  0.0011 -6.7585
siesta:  142   -43825.6487   -43825.6490   -43825.9097  0.0007 -6.7585
siesta:  143   -43825.6487   -43825.6490   -43825.9098  0.0010 -6.7585
siesta:  144   -43825.6486   -43825.6490   -43825.9098  0.0008 -6.7585
siesta:  145   -43825.6487   -43825.6490   -43825.9098  0.0008 -6.7585
siesta:  146   -43825.6487   -43825.6489   -43825.9097  0.0011 -6.7585
siesta:  147   -43825.6487   -43825.6489   -43825.9096  0.0005 -6.7585
siesta:  148   -43825.6487   -43825.6490   -43825.9098  0.0008 -6.7585
siesta:  149   -43825.6487   -43825.6489   -43825.9097  0.0009 -6.7585
siesta:  150   -43825.6487   -43825.6489   -43825.9097  0.0008 -6.7585
siesta:  151   -43825.6487   -43825.6489   -43825.9098  0.0007 -6.7585
siesta:  152   -43825.6487   -43825.6489   -43825.9097  0.0009 -6.7585
siesta:  153   -43825.6487   -43825.6489   -43825.9097  0.0008 -6.7585
siesta:  154   -43825.6488   -43825.6490   -43825.9097  0.0009 -6.7585
siesta:  155   -43825.6485   -43825.6489   -43825.9097  0.0011 -6.7585
siesta:  156   -43825.6487   -43825.6489   -43825.9098  0.0003 -6.7585
siesta:  157   -43825.6487   -43825.6489   -43825.9097  0.0006 -6.7585
siesta:  158   -43825.6487   -43825.6489   -43825.9096  0.0005 -6.7585
siesta:  159   -43825.6487   -43825.6489   -43825.9097  0.0004 -6.7585
siesta:  160   -43825.6486   -43825.6488   -43825.9096  0.0003 -6.7585
siesta:  161   -43825.6486   -43825.6488   -43825.9096  0.0006 -6.7585
siesta:  162   -43825.6486   -43825.6488   -43825.9096  0.0004 -6.7585
siesta:  163   -43825.6487   -43825.6488   -43825.9097  0.0006 -6.7585
siesta:  164   -43825.6488   -43825.6488   -43825.9096  0.0008 -6.7585
siesta:  165   -43825.6487   -43825.6489   -43825.9096  0.0003 -6.7585
siesta:  166   -43825.6486   -43825.6488   -43825.9096  0.0008 -6.7585
siesta:  167   -43825.6487   -43825.6488   -43825.9097  0.0006 -6.7585
siesta:  168   -43825.6487   -43825.6489   -43825.9097  0.0004 -6.7585
siesta:  169   -43825.6487   -43825.6488   -43825.9097  0.0003 -6.7585
siesta:  170   -43825.6487   -43825.6489   -43825.9097  0.0005 -6.7585
siesta:  171   -43825.6488   -43825.6489   -43825.9097  0.0003 -6.7585
siesta:  172   -43825.6487   -43825.6488   -43825.9096  0.0003 -6.7585
siesta:  173   -43825.6487   -43825.6488   -43825.9097  0.0003 -6.7585
siesta:  174   -43825.6487   -43825.6488   -43825.9097  0.0003 -6.7585
siesta:  175   -43825.6487   -43825.6488   -43825.9096  0.0005 -6.7585
siesta:  176   -43825.6487   -43825.6488   -43825.9096  0.0004 -6.7585
siesta:  177   -43825.6487   -43825.6488   -43825.9096  0.0004 -6.7585
siesta:  178   -43825.6487   -43825.6488   -43825.9096  0.0003 -6.7585
siesta:  179   -43825.6487   -43825.6488   -43825.9096  0.0006 -6.7585
siesta:  180   -43825.6487   -43825.6488   -43825.9096  0.0003 -6.7585
siesta:  181   -43825.6487   -43825.6488   -43825.9097  0.0004 -6.7585
siesta:  182   -43825.6488   -43825.6488   -43825.9096  0.0004 -6.7585
siesta:  183   -43825.6487   -43825.6488   -43825.9096  0.0001 -6.7585
siesta:  184   -43825.6487   -43825.6489   -43825.9097  0.0003 -6.7585
siesta:  185   -43825.6488   -43825.6488   -43825.9097  0.0002 -6.7585
siesta:  186   -43825.6487   -43825.6488   -43825.9096  0.0003 -6.7585
siesta:  187   -43825.6488   -43825.6488   -43825.9097  0.0002 -6.7585
siesta:  188   -43825.6488   -43825.6489   -43825.9097  0.0005 -6.7585
siesta:  189   -43825.6488   -43825.6488   -43825.9096  0.0003 -6.7585
siesta:  190   -43825.6488   -43825.6489   -43825.9096  0.0003 -6.7585
siesta:  191   -43825.6487   -43825.6488   -43825.9096  0.0003 -6.7585
siesta:  192   -43825.6487   -43825.6488   -43825.9097  0.0002 -6.7585
siesta:  193   -43825.6488   -43825.6488   -43825.9096  0.0003 -6.7585
siesta:  194   -43825.6488   -43825.6488   -43825.9096  0.0002 -6.7585
siesta:  195   -43825.6488   -43825.6488   -43825.9096  0.0003 -6.7585
siesta:  196   -43825.6487   -43825.6488   -43825.9096  0.0001 -6.7585
siesta:  197   -43825.6488   -43825.6488   -43825.9096  0.0003 -6.7585
siesta:  198   -43825.6487   -43825.6488   -43825.9096  0.0002 -6.7585
siesta:  199   -43825.6488   -43825.6488   -43825.9096  0.0002 -6.7585
siesta:  200   -43825.6488   -43825.6488   -43825.9096  0.0002 -6.7585
siesta:  201   -43825.6487   -43825.6488   -43825.9096  0.0002 -6.7585
siesta:  202   -43825.6488   -43825.6488   -43825.9096  0.0003 -6.7585
siesta:  203   -43825.6487   -43825.6488   -43825.9096  0.0001 -6.7585
siesta:  204   -43825.6487   -43825.6488   -43825.9096  0.0003 -6.7585
siesta:  205   -43825.6488   -43825.6488   -43825.9097  0.0001 -6.7585

siesta: E_KS(eV) =           -43825.6488

siesta: Atomic forces (eV/Ang):
----------------------------------------
   Tot    0.005609   -0.004043   -0.001193
----------------------------------------
   Max    0.032171
   Res    0.014648    sqrt( Sum f_i^2 / 3N )
----------------------------------------
   Max    0.032171    constrained

Stress-tensor-Voigt (kbar):        0.15        0.15       -0.10       -0.12        0.00        0.00
Target enthalpy (eV/cell)   -43825.9096

* Maximum dynamic memory allocated =  2148 MB

outcoor: Relaxed atomic coordinates (fractional):           
   -0.00003421    0.00003378    0.00000980   2  Sn         1
    0.11813392    0.11813930    0.08487676   2  Sn         2
    0.07172417    0.07182621    0.00000414   1  O          3
    0.16232830    0.16222382   -0.00000216   1  O          4
    0.05404390    0.19988633    0.08589237   1  O          5
    0.19983583    0.05398767    0.08591203   1  O          6
    0.00000290   -0.00000246    0.15777597   2  Sn         7
    0.07191332    0.07192142    0.16146951   1  O          8
   -0.00000267    0.00000208   -0.15776275   2  Sn         9
    0.11813583    0.11813896   -0.08487474   2  Sn        10
    0.07191392    0.07192521   -0.16146640   1  O         11
    0.05403947    0.19988171   -0.08589321   1  O         12
    0.19983116    0.05397734   -0.08591019   1  O         13
    0.00590993    0.20088086    0.00000444   2  Sn        14
    0.20091585    0.00590639    0.00000696   2  Sn        15
   -0.11813970   -0.11813554    0.08487739   2  Sn        16
   -0.16222386   -0.16232802   -0.00000290   1  O         17
   -0.07182765   -0.07172609    0.00000354   1  O         18
   -0.19988665   -0.05404915    0.08589327   1  O         19
   -0.05398955   -0.19983803    0.08591235   1  O         20
   -0.11813665   -0.11813761   -0.08487643   2  Sn        21
   -0.07192297   -0.07191502   -0.16146833   1  O         22
   -0.19987892   -0.05403989   -0.08589092   1  O         23
   -0.05397747   -0.19983223   -0.08590710   1  O         24
   -0.12450688    0.12450611   -0.09187148   2  Sn        25
   -0.20226508    0.07749963   -0.12962299   1  O         26
   -0.07749882    0.20226558   -0.12961928   1  O         27
   -0.05020499    0.05020271   -0.07901198   1  O         28
    0.12448564   -0.12448555   -0.09187596   2  Sn        29
    0.07749618   -0.20224140   -0.12966383   1  O         30
    0.20224233   -0.07749980   -0.12966545   1  O         31
    0.05017420   -0.05017355   -0.07898671   1  O         32
   -0.00590585   -0.20091613    0.00000360   2  Sn        33
    0.12449214   -0.12449182    0.09183512   2  Sn        34
    0.08878973   -0.17488036   -0.00002254   1  O         35
    0.17488059   -0.08878998   -0.00002194   1  O         36
    0.05017841   -0.05017708    0.07898710   1  O         37
   -0.20088025   -0.00591853    0.00000569   2  Sn        38
   -0.12451330    0.12451025    0.09186609   2  Sn        39
   -0.17488943    0.08879611   -0.00000945   1  O         40
   -0.08879725    0.17488789   -0.00000672   1  O         41
   -0.05020639    0.05020412    0.07901620   1  O         42
   -0.07192087   -0.07191559    0.16146973   1  O         43
   -0.20227227    0.07748419    0.12959563   1  O         44
   -0.07749518    0.20226622    0.12960364   1  O         45
   -0.02544160    0.02544073    0.26176629   1  O         46
    0.07748949   -0.20224658    0.12960891   1  O         47
    0.20224634   -0.07749310    0.12961247   1  O         48
    0.02544004   -0.02544038    0.26176299   1  O         49
   -0.02543975    0.02543976   -0.26175401   1  O         50
    0.02544093   -0.02544055   -0.26174917   1  O         51

siesta: Program's energy decomposition (eV):
siesta: Eions   =     57013.986361
siesta: Ena     =      6997.501804
siesta: Ekin    =     32124.601218
siesta: Enl     =    -17993.270727
siesta: DEna    =      -680.240457
siesta: DUscf   =       209.685571
siesta: DUext   =         0.000000
siesta: Exc     =     -7469.939860
siesta: eta*DQ  =         0.000000
siesta: Emadel  =         0.000000
siesta: Ekinion =         0.000000
siesta: Eharris =    -43825.648781
siesta: Etot    =    -43825.648812
siesta: FreeEng =    -43825.909621

siesta: Final energy (eV):
siesta:       Kinetic =   32124.601218
siesta:       Hartree =  135850.148946
siesta:    Ext. field =       0.000000
siesta:   Exch.-corr. =   -7469.939860
siesta:  Ion-electron = -302598.213930
siesta:       Ion-ion =   98267.754813
siesta:       Ekinion =       0.000000
siesta:         Total =  -43825.648812

siesta: Stress tensor (static) (eV/Ang**3):
siesta:     0.000094   -0.000075    0.000000
siesta:    -0.000075    0.000094    0.000000
siesta:     0.000000    0.000000   -0.000061

siesta: Cell volume =       8000.000000 Ang**3

siesta: Pressure (static):
siesta:                Solid            Molecule  Units
siesta:          -0.00000046         -0.00000017  Ry/Bohr**3
siesta:          -0.00004239         -0.00001532  eV/Ang**3
siesta:          -0.06791134         -0.02454956  kBar

siesta: Electric dipole (a.u.)  =    0.002924   -0.003206    0.001198
siesta: Electric dipole (Debye) =    0.007432   -0.008149    0.003045

* Maximum dynamic memory allocated : Node    0 =  2148 MB

* Maximum memory occured during dhscf                         

timer: CPU execution times:
timer:  Routine       Calls   Time/call    Tot.time        %
timer:  siesta            1  221327.179  221327.179   100.00
timer:  Setup             1       0.645       0.645     0.00
timer:  bands             1       0.000       0.000     0.00
timer:  writewave         1       0.002       0.002     0.00
timer:  KSV_init          1       0.001       0.001     0.00
timer:  IterMD           82    2698.910  221310.643    99.99
timer:  hsparse          85       2.285     194.257     0.09
timer:  overfsm         164       0.977     160.302     0.07
timer:  IterSCF        8697      25.415  221030.439    99.87
timer:  kinefsm         164       0.975     159.967     0.07
timer:  nlefsm          164       4.927     807.995     0.37
timer:  DHSCF          8698      22.436  195147.273    88.17
timer:  DHSCF1            1       0.529       0.529     0.00
timer:  DHSCF2           82      19.263    1579.532     0.71
timer:  REORD         69756       0.019    1336.881     0.60
timer:  POISON         8780       2.302   20209.040     9.13
timer:  DHSCF3         8698      22.024  191565.733    86.55
timer:  rhoofd         8698       6.087   52944.809    23.92
timer:  cellXC         8698       6.036   52497.026    23.72
timer:  vmat           8697       6.943   60379.464    27.28
timer:  diagon         8615       2.481   21372.965     9.66
timer:  rdiag          8615       1.611   13881.162     6.27
timer:  rdiag1         8615       0.064     552.397     0.25
timer:  rdiag2         8615       0.203    1750.770     0.79
timer:  rdiag3         8615       1.178   10150.514     4.59
timer:  rdiag4         8615       0.160    1380.628     0.62
timer:  DHSCF4           82      22.582    1851.755     0.84
timer:  dfscf            82      20.629    1691.539     0.76
timer:  optical           1       0.000       0.000     0.00
  

elaps: ELAPSED times:
elaps:  Routine       Calls   Time/call    Tot.time        %
elaps:  siesta            1  275528.337  275528.337   100.00
elaps:  Setup             1       1.012       1.012     0.00
elaps:  bands             1       0.001       0.001     0.00
elaps:  writewave         1       0.002       0.002     0.00
elaps:  KSV_init          1       0.001       0.001     0.00
elaps:  IterMD           82    3359.687  275494.363    99.99
elaps:  hsparse          85       3.157     268.377     0.10
elaps:  overfsm         164       1.333     218.603     0.08
elaps:  IterSCF        8697      31.631  275094.224    99.84
elaps:  kinefsm         164       1.335     218.948     0.08
elaps:  nlefsm          164       6.670    1093.952     0.40
elaps:  DHSCF          8698      27.647  240472.367    87.28
elaps:  DHSCF1            1       1.040       1.040     0.00
elaps:  DHSCF2           82      26.047    2135.827     0.78
elaps:  REORD         69756       0.024    1651.071     0.60
elaps:  POISON         8780       2.843   24958.363     9.06
elaps:  DHSCF3         8698      27.094  235667.099    85.53
elaps:  rhoofd         8698       7.501   65245.816    23.68
elaps:  cellXC         8698       7.391   64287.981    23.33
elaps:  vmat           8697       8.551   74371.998    26.99
elaps:  diagon         8615       3.051   26282.569     9.54
elaps:  rdiag          8615       1.982   17071.009     6.20
elaps:  rdiag1         8615       0.080     684.995     0.25
elaps:  rdiag2         8615       0.251    2159.946     0.78
elaps:  rdiag3         8615       1.449   12479.671     4.53
elaps:  rdiag4         8615       0.196    1689.852     0.61
elaps:  DHSCF4           82      30.291    2483.847     0.90
elaps:  dfscf            82      27.673    2269.176     0.82
elaps:  optical           1       0.002       0.002     0.00
  
>> End of run:  20-FEB-2007  22:08:21
