SIESTA 1.3    -- [Release] (30 Jul 2003)
Architecture  : altix-intel
Compiler flags: ifort 
PARALLEL version

* Running on    8 nodes in parallel
>> Start of run:  14-SEP-2005   9:31:25

                           ***********************       
                           *  WELCOME TO SIESTA  *       
                           ***********************       

reinit: Reading from standard input
************************** Dump of input data file ****************************
# FCfullBZ (coord relax & base nueva)
SystemLabel      SnO2FC
NumberOfSpecies  2
%block ChemicalSpeciesLabel
    1   50  Sn
    2    8  O
%endblock ChemicalSpeciesLabel
NumberOfAtoms         162
LatticeConstant    8.9681977864  Bohr
%block LatticeVectors
   3.0000000000     0.0000000000     0.0000000000
   0.0000000804     3.0000000000     0.0000000000
   0.0000000548     0.0000000548     2.0440701000
%endblock LatticeVectors
AtomicCoordinatesFormat  NotScaledCartesianBohr
%block AtomicCoordinatesAndAtomicSpecies
  -8.9681981904    -8.9681979501    -6.1105416487      1
  -4.4840990952    -4.4840989751    -3.0552708243      1
  -6.2176518556    -6.2176516890    -6.1105416487      2
  -1.7335529078    -7.2346452361    -3.0552708243      2
  -2.7505464985    -2.7505464248    -6.1105416487      2
  -7.2346452826    -1.7335527140    -3.0552708243      2
  -8.9681980267    -8.9681977864     0.0000000000      1
  -4.4840989315    -4.4840988113     3.0552708243      1
  -6.2176516919    -6.2176515253     0.0000000000      2
  -1.7335527441    -7.2346450724     3.0552708243      2
  -2.7505463348    -2.7505462611     0.0000000000      2
  -7.2346451189    -1.7335525502     3.0552708243      2
  -8.9681978629    -8.9681976226     6.1105416487      1
  -4.4840987677    -4.4840986476     9.1658124730      1
  -6.2176515282    -6.2176513616     6.1105416487      2
  -1.7335525804    -7.2346449087     9.1658124730      2
  -2.7505461711    -2.7505460973     6.1105416487      2
  -7.2346449551    -1.7335523865     9.1658124730      2
  -8.9681979501    -0.0000001637    -6.1105416487      1
  -4.4840988549     4.4840988113    -3.0552708243      1
  -6.2176516153     2.7505460973    -6.1105416487      2
  -1.7335526675     1.7335525502    -3.0552708243      2
  -2.7505462582     6.2176513616    -6.1105416487      2
  -7.2346450423     7.2346450724    -3.0552708243      2
  -8.9681977864     0.0000000000     0.0000000000      1
  -4.4840986912     4.4840989751     3.0552708243      1
  -6.2176514516     2.7505462611     0.0000000000      2
  -1.7335525038     1.7335527140     3.0552708243      2
  -2.7505460945     6.2176515253     0.0000000000      2
  -7.2346448786     7.2346452361     3.0552708243      2
  -8.9681976226     0.0000001637     6.1105416487      1
  -4.4840985274     4.4840991388     9.1658124730      1
  -6.2176512879     2.7505464248     6.1105416487      2
  -1.7335523401     1.7335528777     9.1658124730      2
  -2.7505459307     6.2176516890     6.1105416487      2
  -7.2346447148     7.2346453999     9.1658124730      2
  -8.9681977098     8.9681976226    -6.1105416487      1
  -4.4840986146    13.4522965977    -3.0552708243      1
  -6.2176513750    11.7187438837    -6.1105416487      2
  -1.7335524272    10.7017503366    -3.0552708243      2
  -2.7505460179    15.1858491479    -6.1105416487      2
  -7.2346448020    16.2028428588    -3.0552708243      2
  -8.9681975461     8.9681977864     0.0000000000      1
  -4.4840984509    13.4522967614     3.0552708243      1
  -6.2176512113    11.7187440475     0.0000000000      2
  -1.7335522635    10.7017505003     3.0552708243      2
  -2.7505458542    15.1858493117     0.0000000000      2
  -7.2346446382    16.2028430225     3.0552708243      2
  -8.9681973823     8.9681979501     6.1105416487      1
  -4.4840982871    13.4522969252     9.1658124730      1
  -6.2176510476    11.7187442112     6.1105416487      2
  -1.7335520998    10.7017506641     9.1658124730      2
  -2.7505456904    15.1858494754     6.1105416487      2
  -7.2346444745    16.2028431862     9.1658124730      2
  -0.0000004040    -8.9681979501    -6.1105416487      1
   4.4840986912    -4.4840989751    -3.0552708243      1
   2.7505459307    -6.2176516890    -6.1105416487      2
   7.2346448786    -7.2346452361    -3.0552708243      2
   6.2176512879    -2.7505464248    -6.1105416487      2
   1.7335525038    -1.7335527140    -3.0552708243      2
  -0.0000002403    -8.9681977864     0.0000000000      1
   4.4840988549    -4.4840988113     3.0552708243      1
   2.7505460945    -6.2176515253     0.0000000000      2
   7.2346450423    -7.2346450724     3.0552708243      2
   6.2176514516    -2.7505462611     0.0000000000      2
   1.7335526675    -1.7335525502     3.0552708243      2
  -0.0000000766    -8.9681976226     6.1105416487      1
   4.4840990186    -4.4840986476     9.1658124730      1
   2.7505462582    -6.2176513616     6.1105416487      2
   7.2346452060    -7.2346449087     9.1658124730      2
   6.2176516153    -2.7505460973     6.1105416487      2
   1.7335528313    -1.7335523865     9.1658124730      2
  -0.0000001637    -0.0000001637    -6.1105416487      1
   4.4840989315     4.4840988113    -3.0552708243      1
   2.7505461711     2.7505460973    -6.1105416487      2
   7.2346451189     1.7335525502    -3.0552708243      2
   6.2176515282     6.2176513616    -6.1105416487      2
   1.7335527441     7.2346450724    -3.0552708243      2
   0.0000000000     0.0000000000     0.0000000000      1
   4.4840990952     4.4840989751     3.0552708243      1
   2.7505463348     2.7505462611     0.0000000000      2
   7.2346452826     1.7335527140     3.0552708243      2
   6.2176516919     6.2176515253     0.0000000000      2
   1.7335529078     7.2346452361     3.0552708243      2
   0.0000001637     0.0000001637     6.1105416487      1
   4.4840992589     4.4840991388     9.1658124730      1
   2.7505464985     2.7505464248     6.1105416487      2
   7.2346454463     1.7335528777     9.1658124730      2
   6.2176518556     6.2176516890     6.1105416487      2
   1.7335530716     7.2346453999     9.1658124730      2
   0.0000000766     8.9681976226    -6.1105416487      1
   4.4840991718    13.4522965977    -3.0552708243      1
   2.7505464114    11.7187438837    -6.1105416487      2
   7.2346453592    10.7017503366    -3.0552708243      2
   6.2176517685    15.1858491479    -6.1105416487      2
   1.7335529844    16.2028428588    -3.0552708243      2
   0.0000002403     8.9681977864     0.0000000000      1
   4.4840993355    13.4522967614     3.0552708243      1
   2.7505465751    11.7187440475     0.0000000000      2
   7.2346455229    10.7017505003     3.0552708243      2
   6.2176519322    15.1858493117     0.0000000000      2
   1.7335531481    16.2028430225     3.0552708243      2
   0.0000004040     8.9681979501     6.1105416487      1
   4.4840994992    13.4522969252     9.1658124730      1
   2.7505467388    11.7187442112     6.1105416487      2
   7.2346456866    10.7017506641     9.1658124730      2
   6.2176520959    15.1858494754     6.1105416487      2
   1.7335533119    16.2028431862     9.1658124730      2
   8.9681973823    -8.9681979501    -6.1105416487      1
  13.4522964775    -4.4840989751    -3.0552708243      1
  11.7187437171    -6.2176516890    -6.1105416487      2
  16.2028426649    -7.2346452361    -3.0552708243      2
  15.1858490742    -2.7505464248    -6.1105416487      2
  10.7017502902    -1.7335527140    -3.0552708243      2
   8.9681975461    -8.9681977864     0.0000000000      1
  13.4522966413    -4.4840988113     3.0552708243      1
  11.7187438809    -6.2176515253     0.0000000000      2
  16.2028428287    -7.2346450724     3.0552708243      2
  15.1858492380    -2.7505462611     0.0000000000      2
  10.7017504539    -1.7335525502     3.0552708243      2
   8.9681977098    -8.9681976226     6.1105416487      1
  13.4522968050    -4.4840986476     9.1658124730      1
  11.7187440446    -6.2176513616     6.1105416487      2
  16.2028429924    -7.2346449087     9.1658124730      2
  15.1858494017    -2.7505460973     6.1105416487      2
  10.7017506176    -1.7335523865     9.1658124730      2
   8.9681976226    -0.0000001637    -6.1105416487      1
  13.4522967178     4.4840988113    -3.0552708243      1
  11.7187439574     2.7505460973    -6.1105416487      2
  16.2028429052     1.7335525502    -3.0552708243      2
  15.1858493145     6.2176513616    -6.1105416487      2
  10.7017505305     7.2346450724    -3.0552708243      2
   8.9681977864     0.0000000000     0.0000000000      1
  13.4522968816     4.4840989751     3.0552708243      1
  11.7187441212     2.7505462611     0.0000000000      2
  16.2028430690     1.7335527140     3.0552708243      2
  15.1858494783     6.2176515253     0.0000000000      2
  10.7017506942     7.2346452361     3.0552708243      2
   8.9681979501     0.0000001637     6.1105416487      1
  13.4522970453     4.4840991388     9.1658124730      1
  11.7187442849     2.7505464248     6.1105416487      2
  16.2028432327     1.7335528777     9.1658124730      2
  15.1858496420     6.2176516890     6.1105416487      2
  10.7017508579     7.2346453999     9.1658124730      2
   8.9681978629     8.9681976226    -6.1105416487      1
  13.4522969581    13.4522965977    -3.0552708243      1
  11.7187441977    11.7187438837    -6.1105416487      2
  16.2028431455    10.7017503366    -3.0552708243      2
  15.1858495548    15.1858491479    -6.1105416487      2
  10.7017507708    16.2028428588    -3.0552708243      2
   8.9681980267     8.9681977864     0.0000000000      1
  13.4522971219    13.4522967614     3.0552708243      1
  11.7187443615    11.7187440475     0.0000000000      2
  16.2028433093    10.7017505003     3.0552708243      2
  15.1858497186    15.1858493117     0.0000000000      2
  10.7017509345    16.2028430225     3.0552708243      2
   8.9681981904     8.9681979501     6.1105416487      1
  13.4522972856    13.4522969252     9.1658124730      1
  11.7187445252    11.7187442112     6.1105416487      2
  16.2028434730    10.7017506641     9.1658124730      2
  15.1858498823    15.1858494754     6.1105416487      2
  10.7017510982    16.2028431862     9.1658124730      2
%endblock AtomicCoordinatesAndAtomicSpecies
MD.TypeOfRun           FC
MD.FCfirst             79
MD.FClast              84
MD.FCdispl             0.0100000000  Bohr
%Block PAO.Basis
Sn   3      0.57189
 n=5   0   2   E    48.97553     3.16263
     4.52650     3.51761
     1.00000     1.00000
 n=5   1   2   E     0.70334     0.26859
     5.81562     3.65820
     1.00000     1.00000
 n=5   2   1   E    68.33032     0.68970
     4.64034
     1.00000
O    3     -0.29842
 n=2   0   2   E    56.01994     3.70797
     5.13209     3.09245
     1.00000     1.00000
 n=2   1   2   E     4.94948     2.06325
     5.45052     2.81311
     1.00000     1.00000
 n=3   2   1   E    69.18627     0.67707
     3.61523
     1.00000
%EndBlock PAO.Basis
KgridCutoff          15. Ang
MeshCutoff           250. Ry
#SpinPolarized         yes
xc.functional         LDA
xc.authors            CA
SolutionMethod        diagon        # OrderN or Diagon
MaxSCFIterations       50
DM.MixingWeight       0.20
DM.Tolerance          1.d-4
DM.NumberPulay         4
ElectronicTemperature  300 K
DM.UseSaveDM          true
UseSaveData          true
#MD.TypeOfRun           cg           # Type of dynamics:
#MD.VariableCell      .true.
#MD.NumCGsteps          200
#MD.MaxForceTol         4.004 eV/Ang
#MD.MaxStressTol        2.002 eV/Ang**3
#BandLinesScale               pi/a
#%block BandLines
#1     0.0 0.0 0.0 \Gamma
#30    1.0 0.0 0.0 X
#30    1.0 1.0 0.0 M
#40    0.0 0.0 0.0 \Gamma
#45    0.0 0.0 1.46766 Z
#30    1.0 0.0 1.46766 R
#30    1.0 1.0 1.46766 A
#%endblock BandLines
#WriteMullikenPop       2
#
#%block ProjectedDensityOfStates
#   -36.00  5.00  0.100  1000  eV
#%endblock ProjectedDensityOfStates
#
#SaveDeltaRho                  .true.
#SaveRho                       .true.
#SaveElectrostaticPotential    .true.
#SaveTotalPotential            .true.
#WriteDenchar                  .true.
#%block LocalDensityOfStates
#   -6.0000  -4.5000 eV
#%endblock LocalDensityOfStates
#
#MD.BornCharge          1
#%block PolarizationGrids
#8  4  4
#4  8  4
#4  4  8
#%endblock PolarizationGrids
#
#WriteMullikenPop 1
#WriteHirshfeldPop T
#WriteVoronoiPop T
************************** End of input data file *****************************

reinit: -----------------------------------------------------------------------
reinit: System Name:                                                            
reinit: -----------------------------------------------------------------------
reinit: System Label: SnO2FC              
reinit: -----------------------------------------------------------------------

initatom: Reading input for the pseudopotentials and atomic orbitals ----------
 Species number:            1  Label: Sn Atomic number:          50
 Species number:            2  Label: O Atomic number:           8
Ground state valence configuration:   5s02  5p02
Reading pseudopotential information in formatted form from Sn.psf
Ground state valence configuration:   2s02  2p04
Reading pseudopotential information in formatted form from O.psf
For Sn, standard SIESTA heuristics set lmxkb to 3
 (one more than the basis l, including polarization orbitals).
Use PS.lmax or PS.KBprojectors blocks to override.
For O, standard SIESTA heuristics set lmxkb to 3
 (one more than the basis l, including polarization orbitals).
Use PS.lmax or PS.KBprojectors blocks to override.

<basis_specs>
===============================================================================
Sn                   Z=  50    Mass=  118.71        Charge= 0.57189    
Lmxo=2 Lmxkb=3     BasisType=split      Semic=F
L=0  Nsemic=0  Cnfigmx=5
          n=1  nzeta=2  polorb=0
               vcte:    48.976    
               rinn:    3.1626    
                rcs:    4.5265      3.5176    
            lambdas:    1.0000      1.0000    
L=1  Nsemic=0  Cnfigmx=5
          n=1  nzeta=2  polorb=0
               vcte:   0.70334    
               rinn:   0.26859    
                rcs:    5.8156      3.6582    
            lambdas:    1.0000      1.0000    
L=2  Nsemic=0  Cnfigmx=5
          n=1  nzeta=1  polorb=0
               vcte:    68.330    
               rinn:   0.68970    
                rcs:    4.6403    
            lambdas:    1.0000    
-------------------------------------------------------------------------------
L=0  Nkbl=1  erefs: 0.17977+309
L=1  Nkbl=1  erefs: 0.17977+309
L=2  Nkbl=1  erefs: 0.17977+309
L=3  Nkbl=1  erefs: 0.17977+309
===============================================================================
</basis_specs>

atom: Called for Sn  (Z =  50)

read_vps: Pseudopotential generation method:
read_vps: ATM3      Troullier-Martins                       

read_vps: Pseudopotential generated from a relativistic atomic calculation
read_vps: There are spin-orbit pseudopotentials available
read_vps: Spin-orbit interaction is not included in this calculation

read_vps: Valence configuration (pseudopotential and basis set generation):
5s( 2.00) rc: 2.49
5p( 2.00) rc: 2.28
5d( 0.00) rc: 3.36
4f( 0.00) rc: 2.28
Total valence charge:    4.00000

read_vps: Pseudopotential includes a core correction:
read_vps: Pseudo-core for xc-correction
comcore: Pseudo-core radius Rcore=  5.080792

xc_check: Exchange-correlation functional:
xc_check: Ceperley-Alder
V l=0 = -2*Zval/r beyond r=  3.8592
V l=1 = -2*Zval/r beyond r=  3.8592
V l=2 = -2*Zval/r beyond r=  3.8592
V l=3 = -2*Zval/r beyond r=  3.8592
All V_l potentials equal beyond r=  3.3217
This should be close to max(r_c) in ps generation
All pots = -2*Zval/r beyond r=  3.8592

VLOCAL1: 99.0% of the norm of Vloc inside      3.934 Ry
VLOCAL1: 99.9% of the norm of Vloc inside      8.966 Ry
atom: Maximum radius for 4*pi*r*r*local-pseudopot. charge    3.95691
atom: Maximum radius for r*vlocal+2*Zval:    3.44858
GHOST: No ghost state for L =  0
GHOST: No ghost state for L =  1
GHOST: No ghost state for L =  2
GHOST: No ghost state for L =  3

KBgen: Kleinman-Bylander projectors: 
   l= 0   rc=  4.006687   el= -0.792077   Ekb=  4.930212   kbcos=  0.196861
   l= 1   rc=  4.108118   el= -0.284879   Ekb=  2.452669   kbcos=  0.182781
   l= 2   rc=  4.373072   el=  0.002421   Ekb=  0.349996   kbcos=  0.220719
   l= 3   rc=  4.318748   el=  0.003561   Ekb= -4.097273   kbcos= -0.023103

KBgen: Total number of  Kleinman-Bylander projectors:   16
atom: -------------------------------------------------------------------------

atom: SANKEY-TYPE ORBITALS:
atom: Selected multiple-zeta basis: split     

atom: basis set generated (by rescaling the valence charge)
atom: for a cation of charge   0.5719

SPLIT: Orbitals with angular momentum L= 0

SPLIT: Basis orbitals for state 5s

   izeta = 1
                 lambda =    1.000000
                     rc =    4.540177
                 energy =   -1.083052
                kinetic =    0.716408
    potential(screened) =   -1.799459
       potential(ionic) =   -3.509040

   izeta = 2
                 rmatch =    3.535883
              splitnorm =    0.430082
                 energy =   -0.533409
                kinetic =    1.610067
    potential(screened) =   -2.143476
       potential(ionic) =   -3.873625

SPLIT: Orbitals with angular momentum L= 1

SPLIT: Basis orbitals for state 5p

   izeta = 1
                 lambda =    1.000000
                     rc =    5.829717
                 energy =   -0.587688
                kinetic =    0.823681
    potential(screened) =   -1.411369
       potential(ionic) =   -3.029062

   izeta = 2
                 rmatch =    3.717174
              splitnorm =    0.508724
                 energy =   -0.062131
                kinetic =    1.755330
    potential(screened) =   -1.817462
       potential(ionic) =   -3.539989

SPLIT: Orbitals with angular momentum L= 2

SPLIT: Basis orbitals for state 5d

   izeta = 1
                 lambda =    1.000000
                     rc =    4.655114
                 energy =    1.677210
                kinetic =    3.587257
    potential(screened) =   -1.910047
       potential(ionic) =   -3.643408
atom: Total number of Sankey-type orbitals: 13

atm_pop: Valence configuration(local Pseudopot. screening):
                                                                      
                                                                      
                                                                      
Vna: chval, zval:    4.00000   4.00000

Vna:  Cut-off radius for the neutral-atom potential:   5.829717

atom: _________________________________________________________________________

<basis_specs>
===============================================================================
O                    Z=   8    Mass=  16.000        Charge=-0.29842    
Lmxo=2 Lmxkb=3     BasisType=split      Semic=F
L=0  Nsemic=0  Cnfigmx=2
          n=1  nzeta=2  polorb=0
               vcte:    56.020    
               rinn:    3.7080    
                rcs:    5.1321      3.0924    
            lambdas:    1.0000      1.0000    
L=1  Nsemic=0  Cnfigmx=2
          n=1  nzeta=2  polorb=0
               vcte:    4.9495    
               rinn:    2.0633    
                rcs:    5.4505      2.8131    
            lambdas:    1.0000      1.0000    
L=2  Nsemic=0  Cnfigmx=3
          n=1  nzeta=1  polorb=0
               vcte:    69.186    
               rinn:   0.67707    
                rcs:    3.6152    
            lambdas:    1.0000    
-------------------------------------------------------------------------------
L=0  Nkbl=1  erefs: 0.17977+309
L=1  Nkbl=1  erefs: 0.17977+309
L=2  Nkbl=1  erefs: 0.17977+309
L=3  Nkbl=1  erefs: 0.17977+309
===============================================================================
</basis_specs>

atom: Called for O   (Z =   8)

read_vps: Pseudopotential generation method:
read_vps: ATM3      Troullier-Martins                       

read_vps: Pseudopotential generated from a relativistic atomic calculation
read_vps: There are spin-orbit pseudopotentials available
read_vps: Spin-orbit interaction is not included in this calculation

read_vps: Valence configuration (pseudopotential and basis set generation):
2s( 2.00) rc: 1.14
2p( 4.00) rc: 1.14
3d( 0.00) rc: 1.14
4f( 0.00) rc: 1.14
Total valence charge:    6.00000

xc_check: Exchange-correlation functional:
xc_check: Ceperley-Alder
V l=0 = -2*Zval/r beyond r=  1.1278
V l=1 = -2*Zval/r beyond r=  1.1278
V l=2 = -2*Zval/r beyond r=  1.1278
V l=3 = -2*Zval/r beyond r=  1.1138
All V_l potentials equal beyond r=  1.1278
This should be close to max(r_c) in ps generation
All pots = -2*Zval/r beyond r=  1.1278

VLOCAL1: 99.0% of the norm of Vloc inside     34.126 Ry
VLOCAL1: 99.9% of the norm of Vloc inside     77.774 Ry
atom: Maximum radius for 4*pi*r*r*local-pseudopot. charge    1.37759
atom: Maximum radius for r*vlocal+2*Zval:    1.18566
GHOST: No ghost state for L =  0
GHOST: No ghost state for L =  1
GHOST: No ghost state for L =  2
GHOST: No ghost state for L =  3

KBgen: Kleinman-Bylander projectors: 
   l= 0   rc=  1.377587   el= -1.744580   Ekb=  9.115112   kbcos=  0.327269
   l= 1   rc=  1.360471   el= -0.676117   Ekb= -8.137752   kbcos= -0.395004
   l= 2   rc=  1.791199   el=  0.002386   Ekb= -2.064597   kbcos= -0.003468
   l= 3   rc=  2.107308   el=  0.003508   Ekb= -0.922353   kbcos= -0.000322

KBgen: Total number of  Kleinman-Bylander projectors:   16
atom: -------------------------------------------------------------------------

atom: SANKEY-TYPE ORBITALS:
atom: Selected multiple-zeta basis: split     

atom: basis set generated (by rescaling the valence charge)
atom: for an anion of charge  -0.2984

SPLIT: Orbitals with angular momentum L= 0

SPLIT: Basis orbitals for state 2s

   izeta = 1
                 lambda =    1.000000
                     rc =    5.183594
                 energy =   -1.740989
                kinetic =    1.442772
    potential(screened) =   -3.183761
       potential(ionic) =  -10.961507

   izeta = 2
                 rmatch =    3.143887
              splitnorm =    0.069503
                 energy =   -1.671084
                kinetic =    1.935385
    potential(screened) =   -3.606469
       potential(ionic) =  -11.848317

SPLIT: Orbitals with angular momentum L= 1

SPLIT: Basis orbitals for state 2p

   izeta = 1
                 lambda =    1.000000
                     rc =    5.449379
                 energy =   -0.669181
                kinetic =    4.395046
    potential(screened) =   -5.064226
       potential(ionic) =  -12.520763

   izeta = 2
                 rmatch =    2.844677
              splitnorm =    0.158231
                 energy =   -0.497472
                kinetic =    6.676550
    potential(screened) =   -7.174022
       potential(ionic) =  -15.652512

SPLIT: Orbitals with angular momentum L= 2

SPLIT: Basis orbitals for state 3d

   izeta = 1
                 lambda =    1.000000
                     rc =    3.652726
                 energy =    3.380213
                kinetic =    5.889620
    potential(screened) =   -2.509408
       potential(ionic) =   -9.469546
atom: Total number of Sankey-type orbitals: 13

atm_pop: Valence configuration(local Pseudopot. screening):
                                                                      
                                                                      
                                                                      
Vna: chval, zval:    6.00000   6.00000

Vna:  Cut-off radius for the neutral-atom potential:   5.449379

atom: _________________________________________________________________________

prinput: Basis input ----------------------------------------------------------

PAO.BasisType split     

%block ChemicalSpeciesLabel
    1   50 Sn                      # Species index, atomic number, species label
    2    8 O                       # Species index, atomic number, species label
%endblock ChemicalSpeciesLabel

%block PAO.Basis                 # Define Basis set
Sn          3   0.572            # Label, l-shells, ionic net charge
 n=5   0   2                         # n, l, Nzeta 
   4.540      3.536   
   1.000      1.000   
 n=5   1   2                         # n, l, Nzeta 
   5.830      3.717   
   1.000      1.000   
 n=5   2   1                         # n, l, Nzeta 
   4.655   
   1.000   
O           3  -0.298            # Label, l-shells, ionic net charge
 n=2   0   2                         # n, l, Nzeta 
   5.184      3.144   
   1.000      1.000   
 n=2   1   2                         # n, l, Nzeta 
   5.449      2.845   
   1.000      1.000   
 n=3   2   1                         # n, l, Nzeta 
   3.653   
   1.000   
%endblock PAO.Basis

prinput: ----------------------------------------------------------------------


siesta: ******************** Simulation parameters ****************************
siesta:
siesta: The following are some of the parameters of the simulation.
siesta: A complete list of the parameters used, including defect values,
siesta: can be found in file out.fdf
siesta:
coor:   Atomic-coordinates input format  =     Cartesian coordinates
coor:                                            (in Bohr units)
redata: Number of spin components        =     1
redata: Long output                      =     F
redata: Number of Atomic Species         =     2
redata: Charge density info will appear in .RHO file
redata: Write Mulliken Pop.              =     NO
redata: Mesh Cutoff                      =   250.0000  Ry
redata: Net charge of the system         =     0.0000 |e|
redata: Max. number of SCF Iter          =    50
redata: One Pulay mixing every           =     4 iterations
redata: Mix DM in first SCF step ?       =     F
redata: Write Pulay info on disk?        =     F
redata: New DM Mixing Weight             =     0.2000
redata: No kicks to SCF
redata: DM Mixing Weight for Kicks       =     0.5000
redata: DM Tolerance for SCF             =     0.000100
redata: Use continuation files for DM    =     T
redata: Neglect nonoverlap interactions  =     F
redata: Method of Calculation            =     Diagonalization
redata: Divide and Conquer               =     F
redata: Electronic Temperature           =     0.0019  Ry
redata: Fix the spin of the system       =     F
redata: Dynamics option                  =     Force Constants Matrix Calculation
redata: Atomic displ for force constans  =     0.0100  Bohr
redata: First atom to move               =       79
redata: Last atom to move                =       84
redata: ***********************************************************************

siesta: WARNING: XV file not found

siesta: Atomic coordinates (Bohr) and species
siesta:     -8.96820  -8.96820  -6.11054  1        1
siesta:     -4.48410  -4.48410  -3.05527  1        2
siesta:     -6.21765  -6.21765  -6.11054  2        3
siesta:     -1.73355  -7.23465  -3.05527  2        4
siesta:     -2.75055  -2.75055  -6.11054  2        5
siesta:     -7.23465  -1.73355  -3.05527  2        6
siesta:     -8.96820  -8.96820   0.00000  1        7
siesta:     -4.48410  -4.48410   3.05527  1        8
siesta:     -6.21765  -6.21765   0.00000  2        9
siesta:     -1.73355  -7.23465   3.05527  2       10
siesta:     -2.75055  -2.75055   0.00000  2       11
siesta:     -7.23465  -1.73355   3.05527  2       12
siesta:     -8.96820  -8.96820   6.11054  1       13
siesta:     -4.48410  -4.48410   9.16581  1       14
siesta:     -6.21765  -6.21765   6.11054  2       15
siesta:     -1.73355  -7.23464   9.16581  2       16
siesta:     -2.75055  -2.75055   6.11054  2       17
siesta:     -7.23464  -1.73355   9.16581  2       18
siesta:     -8.96820   0.00000  -6.11054  1       19
siesta:     -4.48410   4.48410  -3.05527  1       20
siesta:     -6.21765   2.75055  -6.11054  2       21
siesta:     -1.73355   1.73355  -3.05527  2       22
siesta:     -2.75055   6.21765  -6.11054  2       23
siesta:     -7.23465   7.23465  -3.05527  2       24
siesta:     -8.96820   0.00000   0.00000  1       25
siesta:     -4.48410   4.48410   3.05527  1       26
siesta:     -6.21765   2.75055   0.00000  2       27
siesta:     -1.73355   1.73355   3.05527  2       28
siesta:     -2.75055   6.21765   0.00000  2       29
siesta:     -7.23464   7.23465   3.05527  2       30
siesta:     -8.96820   0.00000   6.11054  1       31
siesta:     -4.48410   4.48410   9.16581  1       32
siesta:     -6.21765   2.75055   6.11054  2       33
siesta:     -1.73355   1.73355   9.16581  2       34
siesta:     -2.75055   6.21765   6.11054  2       35
siesta:     -7.23464   7.23465   9.16581  2       36
siesta:     -8.96820   8.96820  -6.11054  1       37
siesta:     -4.48410  13.45230  -3.05527  1       38
siesta:     -6.21765  11.71874  -6.11054  2       39
siesta:     -1.73355  10.70175  -3.05527  2       40
siesta:     -2.75055  15.18585  -6.11054  2       41
siesta:     -7.23464  16.20284  -3.05527  2       42
siesta:     -8.96820   8.96820   0.00000  1       43
siesta:     -4.48410  13.45230   3.05527  1       44
siesta:     -6.21765  11.71874   0.00000  2       45
siesta:     -1.73355  10.70175   3.05527  2       46
siesta:     -2.75055  15.18585   0.00000  2       47
siesta:     -7.23464  16.20284   3.05527  2       48
siesta:     -8.96820   8.96820   6.11054  1       49
siesta:     -4.48410  13.45230   9.16581  1       50
siesta:     -6.21765  11.71874   6.11054  2       51
siesta:     -1.73355  10.70175   9.16581  2       52
siesta:     -2.75055  15.18585   6.11054  2       53
siesta:     -7.23464  16.20284   9.16581  2       54
siesta:      0.00000  -8.96820  -6.11054  1       55
siesta:      4.48410  -4.48410  -3.05527  1       56
siesta:      2.75055  -6.21765  -6.11054  2       57
siesta:      7.23464  -7.23465  -3.05527  2       58
siesta:      6.21765  -2.75055  -6.11054  2       59
siesta:      1.73355  -1.73355  -3.05527  2       60
siesta:      0.00000  -8.96820   0.00000  1       61
siesta:      4.48410  -4.48410   3.05527  1       62
siesta:      2.75055  -6.21765   0.00000  2       63
siesta:      7.23465  -7.23465   3.05527  2       64
siesta:      6.21765  -2.75055   0.00000  2       65
siesta:      1.73355  -1.73355   3.05527  2       66
siesta:      0.00000  -8.96820   6.11054  1       67
siesta:      4.48410  -4.48410   9.16581  1       68
siesta:      2.75055  -6.21765   6.11054  2       69
siesta:      7.23465  -7.23464   9.16581  2       70
siesta:      6.21765  -2.75055   6.11054  2       71
siesta:      1.73355  -1.73355   9.16581  2       72
siesta:      0.00000   0.00000  -6.11054  1       73
siesta:      4.48410   4.48410  -3.05527  1       74
siesta:      2.75055   2.75055  -6.11054  2       75
siesta:      7.23465   1.73355  -3.05527  2       76
siesta:      6.21765   6.21765  -6.11054  2       77
siesta:      1.73355   7.23465  -3.05527  2       78
siesta:      0.00000   0.00000   0.00000  1       79
siesta:      4.48410   4.48410   3.05527  1       80
siesta:      2.75055   2.75055   0.00000  2       81
siesta:      7.23465   1.73355   3.05527  2       82
siesta:      6.21765   6.21765   0.00000  2       83
siesta:      1.73355   7.23465   3.05527  2       84
siesta:      0.00000   0.00000   6.11054  1       85
siesta:      4.48410   4.48410   9.16581  1       86
siesta:      2.75055   2.75055   6.11054  2       87
siesta:      7.23465   1.73355   9.16581  2       88
siesta:      6.21765   6.21765   6.11054  2       89
siesta:      1.73355   7.23465   9.16581  2       90
siesta:      0.00000   8.96820  -6.11054  1       91
siesta:      4.48410  13.45230  -3.05527  1       92
siesta:      2.75055  11.71874  -6.11054  2       93
siesta:      7.23465  10.70175  -3.05527  2       94
siesta:      6.21765  15.18585  -6.11054  2       95
siesta:      1.73355  16.20284  -3.05527  2       96
siesta:      0.00000   8.96820   0.00000  1       97
siesta:      4.48410  13.45230   3.05527  1       98
siesta:      2.75055  11.71874   0.00000  2       99
siesta:      7.23465  10.70175   3.05527  2      100
siesta:      6.21765  15.18585   0.00000  2      101
siesta:      1.73355  16.20284   3.05527  2      102
siesta:      0.00000   8.96820   6.11054  1      103
siesta:      4.48410  13.45230   9.16581  1      104
siesta:      2.75055  11.71874   6.11054  2      105
siesta:      7.23465  10.70175   9.16581  2      106
siesta:      6.21765  15.18585   6.11054  2      107
siesta:      1.73355  16.20284   9.16581  2      108
siesta:      8.96820  -8.96820  -6.11054  1      109
siesta:     13.45230  -4.48410  -3.05527  1      110
siesta:     11.71874  -6.21765  -6.11054  2      111
siesta:     16.20284  -7.23465  -3.05527  2      112
siesta:     15.18585  -2.75055  -6.11054  2      113
siesta:     10.70175  -1.73355  -3.05527  2      114
siesta:      8.96820  -8.96820   0.00000  1      115
siesta:     13.45230  -4.48410   3.05527  1      116
siesta:     11.71874  -6.21765   0.00000  2      117
siesta:     16.20284  -7.23465   3.05527  2      118
siesta:     15.18585  -2.75055   0.00000  2      119
siesta:     10.70175  -1.73355   3.05527  2      120
siesta:      8.96820  -8.96820   6.11054  1      121
siesta:     13.45230  -4.48410   9.16581  1      122
siesta:     11.71874  -6.21765   6.11054  2      123
siesta:     16.20284  -7.23464   9.16581  2      124
siesta:     15.18585  -2.75055   6.11054  2      125
siesta:     10.70175  -1.73355   9.16581  2      126
siesta:      8.96820   0.00000  -6.11054  1      127
siesta:     13.45230   4.48410  -3.05527  1      128
siesta:     11.71874   2.75055  -6.11054  2      129
siesta:     16.20284   1.73355  -3.05527  2      130
siesta:     15.18585   6.21765  -6.11054  2      131
siesta:     10.70175   7.23465  -3.05527  2      132
siesta:      8.96820   0.00000   0.00000  1      133
siesta:     13.45230   4.48410   3.05527  1      134
siesta:     11.71874   2.75055   0.00000  2      135
siesta:     16.20284   1.73355   3.05527  2      136
siesta:     15.18585   6.21765   0.00000  2      137
siesta:     10.70175   7.23465   3.05527  2      138
siesta:      8.96820   0.00000   6.11054  1      139
siesta:     13.45230   4.48410   9.16581  1      140
siesta:     11.71874   2.75055   6.11054  2      141
siesta:     16.20284   1.73355   9.16581  2      142
siesta:     15.18585   6.21765   6.11054  2      143
siesta:     10.70175   7.23465   9.16581  2      144
siesta:      8.96820   8.96820  -6.11054  1      145
siesta:     13.45230  13.45230  -3.05527  1      146
siesta:     11.71874  11.71874  -6.11054  2      147
siesta:     16.20284  10.70175  -3.05527  2      148
siesta:     15.18585  15.18585  -6.11054  2      149
siesta:     10.70175  16.20284  -3.05527  2      150
siesta:      8.96820   8.96820   0.00000  1      151
siesta:     13.45230  13.45230   3.05527  1      152
siesta:     11.71874  11.71874   0.00000  2      153
siesta:     16.20284  10.70175   3.05527  2      154
siesta:     15.18585  15.18585   0.00000  2      155
siesta:     10.70175  16.20284   3.05527  2      156
siesta:      8.96820   8.96820   6.11054  1      157
siesta:     13.45230  13.45230   9.16581  1      158
siesta:     11.71874  11.71874   6.11054  2      159
siesta:     16.20284  10.70175   9.16581  2      160
siesta:     15.18585  15.18585   6.11054  2      161
siesta:     10.70175  16.20284   9.16581  2      162

initatomlists: Number of atoms, orbitals, and projectors:    162  2106  2592

* ProcessorY, Blocksize:    2   8


siesta: System type = bulk      

siesta: k-grid: Number of k-points =    18
siesta: k-grid: Cutoff             =    19.401 Ang
siesta: k-grid: Supercell and displacements
siesta: k-grid:    3   0   0      0.000
siesta: k-grid:    0   3   0      0.000
siesta: k-grid:    0   0   4      0.500

superc: Internal auxiliary supercell:     2 x     2 x     3  =      12
superc: Number of atoms, orbitals, and projectors:   1944 25272 31104
 
* Maximum dynamic memory allocated =     2 MB

siesta:                 ==============================
                            Begin FC step =      0
                            Undisplaced coordinates
                        ==============================

superc: Internal auxiliary supercell:     2 x     2 x     3  =      12
superc: Number of atoms, orbitals, and projectors:   1944 25272 31104

InitMesh: MESH =   144 x   144 x    96 =     1990656
InitMesh: Mesh cutoff (required, used) =   250.000   270.670 Ry
 
* Maximum dynamic memory allocated =   241 MB

stepf: Fermi-Dirac step function

siesta: Program's energy decomposition (eV):
siesta: Eions   =     90182.585857
siesta: Ena     =     20822.122423
siesta: Ekin    =     32336.375794
siesta: Enl     =     -3271.206891
siesta: DEna    =         0.000020
siesta: DUscf   =         0.000000
siesta: DUext   =         0.000000
siesta: Exc     =    -13037.715969
siesta: eta*DQ  =         0.000000
siesta: Emadel  =         0.000000
siesta: Eharris =    -54537.357992
siesta: Etot    =    -53333.010480
siesta: FreeEng =    -53333.010480

siesta: iscf   Eharris(eV)      E_KS(eV)   FreeEng(eV)   dDmax  Ef(eV)
siesta:    1   -54537.3580   -53333.0105   -53333.0105  1.9825 -5.3371
timer: Routine,Calls,Time,% = IterSCF        1   14071.503  96.63
siesta:    2   -55641.9703   -52775.7629   -52775.7629  5.8238  1.9296
siesta:    3   -53936.5644   -53502.6601   -53502.6888  1.4054 -4.8829
siesta:    4   -53867.7713   -53557.9471   -53557.9471  1.1870 -4.7930
siesta:    5   -53808.9376   -53926.1561   -53926.1561  0.2194 -5.1504
siesta:    6   -53804.9280   -53969.7758   -53969.7758  0.1839 -5.0311
siesta:    7   -53815.2950   -53745.7352   -53745.7352  0.3081 -5.0111
siesta:    8   -53804.9210   -53838.4161   -53838.4161  0.0762 -5.0436
siesta:    9   -53804.5434   -53831.3563   -53831.3563  0.0399 -5.0296
siesta:   10   -53804.3900   -53813.7625   -53813.7625  0.0109 -5.0400
siesta:   11   -53804.3549   -53807.3791   -53807.3791  0.0047 -5.0263
siesta:   12   -53804.3521   -53806.8047   -53806.8047  0.0020 -5.0238
siesta:   13   -53804.3507   -53806.3672   -53806.3672  0.0016 -5.0224
siesta:   14   -53804.3523   -53805.1377   -53805.1377  0.0007 -5.0229
siesta:   15   -53804.3534   -53804.5423   -53804.5423  0.0002 -5.0219
siesta:   16   -53804.3527   -53804.4466   -53804.4466  0.0001 -5.0217

siesta: E_KS(eV) =           -53804.4097

siesta: E_KS - E_eggbox =    -53804.4097

siesta: Atomic forces (eV/Ang):
----------------------------------------
 Tot   -0.001087   -0.000342    0.000792
----------------------------------------
 Max    0.002968
 Res    0.001964    sqrt( Sum f_i^2 / 3N )
----------------------------------------
 Max    0.002968    constrained
 
* Maximum dynamic memory allocated =   242 MB

siesta:                 ==============================
                            Begin FC step =      1
                            displace atom       79
                            in direction         1
                            by        -0.0100 Bohr
                        ==============================

superc: Internal auxiliary supercell:     2 x     2 x     3  =      12
superc: Number of atoms, orbitals, and projectors:   1944 25272 31104

iodm: Reading Density Matrix from files

siesta: iscf   Eharris(eV)      E_KS(eV)   FreeEng(eV)   dDmax  Ef(eV)
siesta:    1   -53804.3527   -53804.4094   -53804.4094  0.0029 -5.0218
siesta:    2   -53804.3525   -53804.3524   -53804.3524  0.0019 -5.0216
siesta:    3   -53804.3523   -53804.3675   -53804.3675  0.0006 -5.0217
siesta:    4   -53804.3524   -53804.3534   -53804.3534  0.0002 -5.0217
siesta:    5   -53804.3524   -53804.3525   -53804.3525  0.0001 -5.0217

siesta: E_KS(eV) =           -53804.3525

siesta: Atomic forces (eV/Ang):
----------------------------------------
 Tot   -0.000149   -0.001621    0.000570
----------------------------------------
 Max    0.129892
 Res    0.007351    sqrt( Sum f_i^2 / 3N )
----------------------------------------
 Max    0.129892    constrained
 
* Maximum dynamic memory allocated =   242 MB

siesta:                 ==============================
                            Begin FC step =      2
                            displace atom       79
                            in direction         1
                            by         0.0100 Bohr
                        ==============================

superc: Internal auxiliary supercell:     2 x     2 x     3  =      12
superc: Number of atoms, orbitals, and projectors:   1944 25272 31104

iodm: Reading Density Matrix from files

siesta: iscf   Eharris(eV)      E_KS(eV)   FreeEng(eV)   dDmax  Ef(eV)
siesta:    1   -53804.3527   -53804.4094   -53804.4094  0.0029 -5.0218
siesta:    2   -53804.3525   -53804.3524   -53804.3524  0.0019 -5.0216
siesta:    3   -53804.3524   -53804.3676   -53804.3676  0.0006 -5.0217
siesta:    4   -53804.3524   -53804.3534   -53804.3534  0.0002 -5.0217
siesta:    5   -53804.3525   -53804.3525   -53804.3525  0.0001 -5.0217

siesta: E_KS(eV) =           -53804.3525

siesta: Atomic forces (eV/Ang):
----------------------------------------
 Tot   -0.001983    0.001019    0.000606
----------------------------------------
 Max    0.129891
 Res    0.007350    sqrt( Sum f_i^2 / 3N )
----------------------------------------
 Max    0.129891    constrained
 
* Maximum dynamic memory allocated =   242 MB

siesta:                 ==============================
                            Begin FC step =      3
                            displace atom       79
                            in direction         2
                            by        -0.0100 Bohr
                        ==============================

superc: Internal auxiliary supercell:     2 x     2 x     3  =      12
superc: Number of atoms, orbitals, and projectors:   1944 25272 31104

iodm: Reading Density Matrix from files

siesta: iscf   Eharris(eV)      E_KS(eV)   FreeEng(eV)   dDmax  Ef(eV)
siesta:    1   -53804.3527   -53804.4094   -53804.4094  0.0029 -5.0218
siesta:    2   -53804.3524   -53804.3523   -53804.3523  0.0019 -5.0216
siesta:    3   -53804.3522   -53804.3675   -53804.3675  0.0006 -5.0217
siesta:    4   -53804.3523   -53804.3533   -53804.3533  0.0002 -5.0217
siesta:    5   -53804.3524   -53804.3525   -53804.3525  0.0001 -5.0217

siesta: E_KS(eV) =           -53804.3525

siesta: Atomic forces (eV/Ang):
----------------------------------------
 Tot   -0.002485    0.000673    0.000610
----------------------------------------
 Max    0.129889
 Res    0.007351    sqrt( Sum f_i^2 / 3N )
----------------------------------------
 Max    0.129889    constrained
 
* Maximum dynamic memory allocated =   242 MB

siesta:                 ==============================
                            Begin FC step =      4
                            displace atom       79
                            in direction         2
                            by         0.0100 Bohr
                        ==============================

superc: Internal auxiliary supercell:     2 x     2 x     3  =      12
superc: Number of atoms, orbitals, and projectors:   1944 25272 31104

iodm: Reading Density Matrix from files

siesta: iscf   Eharris(eV)      E_KS(eV)   FreeEng(eV)   dDmax  Ef(eV)
siesta:    1   -53804.3527   -53804.4094   -53804.4094  0.0029 -5.0218
siesta:    2   -53804.3525   -53804.3524   -53804.3524  0.0019 -5.0216
siesta:    3   -53804.3524   -53804.3676   -53804.3676  0.0006 -5.0217
siesta:    4   -53804.3524   -53804.3534   -53804.3534  0.0002 -5.0217
siesta:    5   -53804.3525   -53804.3525   -53804.3525  0.0001 -5.0217

siesta: E_KS(eV) =           -53804.3525

siesta: Atomic forces (eV/Ang):
----------------------------------------
 Tot    0.000355   -0.001118    0.000604
----------------------------------------
 Max    0.129889
 Res    0.007351    sqrt( Sum f_i^2 / 3N )
----------------------------------------
 Max    0.129889    constrained
 
* Maximum dynamic memory allocated =   242 MB

siesta:                 ==============================
                            Begin FC step =      5
                            displace atom       79
                            in direction         3
                            by        -0.0100 Bohr
                        ==============================

superc: Internal auxiliary supercell:     2 x     2 x     3  =      12
superc: Number of atoms, orbitals, and projectors:   1944 25272 31104

iodm: Reading Density Matrix from files

siesta: iscf   Eharris(eV)      E_KS(eV)   FreeEng(eV)   dDmax  Ef(eV)
siesta:    1   -53804.3526   -53804.4093   -53804.4093  0.0020 -5.0218
siesta:    2   -53804.3525   -53804.3524   -53804.3524  0.0015 -5.0216
siesta:    3   -53804.3526   -53804.3623   -53804.3623  0.0005 -5.0217
siesta:    4   -53804.3527   -53804.3525   -53804.3525  0.0002 -5.0217
siesta:    5   -53804.3527   -53804.3524   -53804.3524  0.0001 -5.0217

siesta: E_KS(eV) =           -53804.3525

siesta: Atomic forces (eV/Ang):
----------------------------------------
 Tot   -0.001089   -0.000359    0.001695
----------------------------------------
 Max    0.184657
 Res    0.009603    sqrt( Sum f_i^2 / 3N )
----------------------------------------
 Max    0.184657    constrained
 
* Maximum dynamic memory allocated =   242 MB

siesta:                 ==============================
                            Begin FC step =      6
                            displace atom       79
                            in direction         3
                            by         0.0100 Bohr
                        ==============================

superc: Internal auxiliary supercell:     2 x     2 x     3  =      12
superc: Number of atoms, orbitals, and projectors:   1944 25272 31104

iodm: Reading Density Matrix from files

siesta: iscf   Eharris(eV)      E_KS(eV)   FreeEng(eV)   dDmax  Ef(eV)
siesta:    1   -53804.3526   -53804.4093   -53804.4093  0.0020 -5.0218
siesta:    2   -53804.3525   -53804.3524   -53804.3524  0.0015 -5.0216
siesta:    3   -53804.3526   -53804.3623   -53804.3623  0.0005 -5.0217
siesta:    4   -53804.3527   -53804.3525   -53804.3525  0.0002 -5.0217
siesta:    5   -53804.3527   -53804.3524   -53804.3524  0.0001 -5.0217

siesta: E_KS(eV) =           -53804.3524

siesta: Atomic forces (eV/Ang):
----------------------------------------
 Tot   -0.001084   -0.000306   -0.000348
----------------------------------------
 Max    0.184659
 Res    0.009603    sqrt( Sum f_i^2 / 3N )
----------------------------------------
 Max    0.184659    constrained
 
* Maximum dynamic memory allocated =   242 MB

siesta:                 ==============================
                            Begin FC step =      7
                            displace atom       80
                            in direction         1
                            by        -0.0100 Bohr
                        ==============================

superc: Internal auxiliary supercell:     2 x     2 x     3  =      12
superc: Number of atoms, orbitals, and projectors:   1944 25272 31104

iodm: Reading Density Matrix from files

siesta: iscf   Eharris(eV)      E_KS(eV)   FreeEng(eV)   dDmax  Ef(eV)
siesta:    1   -53804.3527   -53804.4094   -53804.4094  0.0029 -5.0218
siesta:    2   -53804.3525   -53804.3524   -53804.3524  0.0019 -5.0216
siesta:    3   -53804.3524   -53804.3676   -53804.3676  0.0006 -5.0217
siesta:    4   -53804.3523   -53804.3534   -53804.3534  0.0002 -5.0217
siesta:    5   -53804.3524   -53804.3524   -53804.3524  0.0001 -5.0217

siesta: E_KS(eV) =           -53804.3524

siesta: Atomic forces (eV/Ang):
----------------------------------------
 Tot   -0.000118    0.000810    0.000555
----------------------------------------
 Max    0.129892
 Res    0.007352    sqrt( Sum f_i^2 / 3N )
----------------------------------------
 Max    0.129892    constrained
 
* Maximum dynamic memory allocated =   242 MB

siesta:                 ==============================
                            Begin FC step =      8
                            displace atom       80
                            in direction         1
                            by         0.0100 Bohr
                        ==============================

superc: Internal auxiliary supercell:     2 x     2 x     3  =      12
superc: Number of atoms, orbitals, and projectors:   1944 25272 31104

iodm: Reading Density Matrix from files

siesta: iscf   Eharris(eV)      E_KS(eV)   FreeEng(eV)   dDmax  Ef(eV)
siesta:    1   -53804.3527   -53804.4094   -53804.4094  0.0029 -5.0218
siesta:    2   -53804.3525   -53804.3524   -53804.3524  0.0019 -5.0216
siesta:    3   -53804.3524   -53804.3676   -53804.3676  0.0006 -5.0217
siesta:    4   -53804.3524   -53804.3534   -53804.3534  0.0002 -5.0217
siesta:    5   -53804.3524   -53804.3525   -53804.3525  0.0001 -5.0217

siesta: E_KS(eV) =           -53804.3525

siesta: Atomic forces (eV/Ang):
----------------------------------------
 Tot   -0.001799   -0.001480    0.000574
----------------------------------------
 Max    0.129885
 Res    0.007351    sqrt( Sum f_i^2 / 3N )
----------------------------------------
 Max    0.129885    constrained
 
* Maximum dynamic memory allocated =   242 MB

siesta:                 ==============================
                            Begin FC step =      9
                            displace atom       80
                            in direction         2
                            by        -0.0100 Bohr
                        ==============================

superc: Internal auxiliary supercell:     2 x     2 x     3  =      12
superc: Number of atoms, orbitals, and projectors:   1944 25272 31104

iodm: Reading Density Matrix from files

siesta: iscf   Eharris(eV)      E_KS(eV)   FreeEng(eV)   dDmax  Ef(eV)
siesta:    1   -53804.3527   -53804.4094   -53804.4094  0.0029 -5.0218
siesta:    2   -53804.3525   -53804.3523   -53804.3523  0.0019 -5.0216
siesta:    3   -53804.3523   -53804.3676   -53804.3676  0.0006 -5.0217
siesta:    4   -53804.3523   -53804.3533   -53804.3533  0.0002 -5.0217
siesta:    5   -53804.3523   -53804.3524   -53804.3524  0.0001 -5.0217

siesta: E_KS(eV) =           -53804.3524

siesta: Atomic forces (eV/Ang):
----------------------------------------
 Tot    0.000095    0.000455    0.000594
----------------------------------------
 Max    0.129891
 Res    0.007351    sqrt( Sum f_i^2 / 3N )
----------------------------------------
 Max    0.129891    constrained
 
* Maximum dynamic memory allocated =   242 MB

siesta:                 ==============================
                            Begin FC step =     10
                            displace atom       80
                            in direction         2
                            by         0.0100 Bohr
                        ==============================

superc: Internal auxiliary supercell:     2 x     2 x     3  =      12
superc: Number of atoms, orbitals, and projectors:   1944 25272 31104

iodm: Reading Density Matrix from files

siesta: iscf   Eharris(eV)      E_KS(eV)   FreeEng(eV)   dDmax  Ef(eV)
siesta:    1   -53804.3527   -53804.4094   -53804.4094  0.0029 -5.0218
siesta:    2   -53804.3525   -53804.3524   -53804.3524  0.0019 -5.0216
siesta:    3   -53804.3524   -53804.3676   -53804.3676  0.0006 -5.0217
siesta:    4   -53804.3524   -53804.3534   -53804.3534  0.0002 -5.0217
siesta:    5   -53804.3524   -53804.3524   -53804.3524  0.0001 -5.0217

siesta: E_KS(eV) =           -53804.3525

siesta: Atomic forces (eV/Ang):
----------------------------------------
 Tot   -0.002177   -0.001057    0.000575
----------------------------------------
 Max    0.129884
 Res    0.007351    sqrt( Sum f_i^2 / 3N )
----------------------------------------
 Max    0.129884    constrained
 
* Maximum dynamic memory allocated =   242 MB

siesta:                 ==============================
                            Begin FC step =     11
                            displace atom       80
                            in direction         3
                            by        -0.0100 Bohr
                        ==============================

superc: Internal auxiliary supercell:     2 x     2 x     3  =      12
superc: Number of atoms, orbitals, and projectors:   1944 25272 31104

iodm: Reading Density Matrix from files

siesta: iscf   Eharris(eV)      E_KS(eV)   FreeEng(eV)   dDmax  Ef(eV)
siesta:    1   -53804.3526   -53804.4093   -53804.4093  0.0020 -5.0218
siesta:    2   -53804.3525   -53804.3524   -53804.3524  0.0015 -5.0216
siesta:    3   -53804.3526   -53804.3623   -53804.3623  0.0005 -5.0217
siesta:    4   -53804.3527   -53804.3525   -53804.3525  0.0002 -5.0217
siesta:    5   -53804.3526   -53804.3524   -53804.3524  0.0001 -5.0217

siesta: E_KS(eV) =           -53804.3523

siesta: Atomic forces (eV/Ang):
----------------------------------------
 Tot   -0.000965   -0.000319    0.001969
----------------------------------------
 Max    0.184656
 Res    0.009602    sqrt( Sum f_i^2 / 3N )
----------------------------------------
 Max    0.184656    constrained
 
* Maximum dynamic memory allocated =   242 MB

siesta:                 ==============================
                            Begin FC step =     12
                            displace atom       80
                            in direction         3
                            by         0.0100 Bohr
                        ==============================

superc: Internal auxiliary supercell:     2 x     2 x     3  =      12
superc: Number of atoms, orbitals, and projectors:   1944 25272 31104

iodm: Reading Density Matrix from files

siesta: iscf   Eharris(eV)      E_KS(eV)   FreeEng(eV)   dDmax  Ef(eV)
siesta:    1   -53804.3526   -53804.4093   -53804.4093  0.0020 -5.0218
siesta:    2   -53804.3525   -53804.3524   -53804.3524  0.0015 -5.0216
siesta:    3   -53804.3525   -53804.3622   -53804.3622  0.0005 -5.0217
siesta:    4   -53804.3527   -53804.3525   -53804.3525  0.0002 -5.0217
siesta:    5   -53804.3526   -53804.3524   -53804.3524  0.0001 -5.0217

siesta: E_KS(eV) =           -53804.3523

siesta: Atomic forces (eV/Ang):
----------------------------------------
 Tot   -0.001031   -0.000283   -0.000464
----------------------------------------
 Max    0.184656
 Res    0.009603    sqrt( Sum f_i^2 / 3N )
----------------------------------------
 Max    0.184656    constrained
 
* Maximum dynamic memory allocated =   242 MB

siesta:                 ==============================
                            Begin FC step =     13
                            displace atom       81
                            in direction         1
                            by        -0.0100 Bohr
                        ==============================

superc: Internal auxiliary supercell:     2 x     2 x     3  =      12
superc: Number of atoms, orbitals, and projectors:   1944 25272 31104

iodm: Reading Density Matrix from files

siesta: iscf   Eharris(eV)      E_KS(eV)   FreeEng(eV)   dDmax  Ef(eV)
siesta:    1   -53804.3529   -53804.4072   -53804.4072  0.0029 -5.0212
siesta:    2   -53804.3527   -53804.3526   -53804.3526  0.0021 -5.0211
siesta:    3   -53804.3525   -53804.3737   -53804.3737  0.0009 -5.0212
siesta:    4   -53804.3527   -53804.3586   -53804.3586  0.0004 -5.0212
siesta:    5   -53804.3528   -53804.3535   -53804.3535  0.0002 -5.0212
siesta:    6   -53804.3528   -53804.3533   -53804.3533  0.0001 -5.0212
siesta:    7   -53804.3528   -53804.3533   -53804.3533  0.0001 -5.0212
siesta:    8   -53804.3528   -53804.3533   -53804.3533  0.0001 -5.0212
siesta:    9   -53804.3528   -53804.3533   -53804.3533  0.0001 -5.0212
siesta:   10   -53804.3528   -53804.3532   -53804.3532  0.0001 -5.0212
siesta:   11   -53804.3528   -53804.3532   -53804.3532  0.0001 -5.0212
siesta:   12   -53804.3528   -53804.3532   -53804.3532  0.0001 -5.0212
siesta:   13   -53804.3528   -53804.3532   -53804.3532  0.0001 -5.0212
siesta:   14   -53804.3527   -53804.3531   -53804.3531  0.0001 -5.0212

siesta: E_KS(eV) =           -53804.3531

siesta: Atomic forces (eV/Ang):
----------------------------------------
 Tot   -0.000809    0.000517    0.000610
----------------------------------------
 Max    0.084477
 Res    0.005726    sqrt( Sum f_i^2 / 3N )
----------------------------------------
 Max    0.084477    constrained
 
* Maximum dynamic memory allocated =   242 MB

siesta:                 ==============================
                            Begin FC step =     14
                            displace atom       81
                            in direction         1
                            by         0.0100 Bohr
                        ==============================

superc: Internal auxiliary supercell:     2 x     2 x     3  =      12
superc: Number of atoms, orbitals, and projectors:   1944 25272 31104

iodm: Reading Density Matrix from files

siesta: iscf   Eharris(eV)      E_KS(eV)   FreeEng(eV)   dDmax  Ef(eV)
siesta:    1   -53804.3529   -53804.4119   -53804.4119  0.0029 -5.0223
siesta:    2   -53804.3526   -53804.3524   -53804.3524  0.0021 -5.0222
siesta:    3   -53804.3525   -53804.3756   -53804.3756  0.0009 -5.0222
siesta:    4   -53804.3527   -53804.3590   -53804.3590  0.0004 -5.0223
siesta:    5   -53804.3529   -53804.3537   -53804.3537  0.0002 -5.0223
siesta:    6   -53804.3528   -53804.3535   -53804.3535  0.0001 -5.0223
siesta:    7   -53804.3528   -53804.3535   -53804.3535  0.0001 -5.0223
siesta:    8   -53804.3528   -53804.3535   -53804.3535  0.0001 -5.0223
siesta:    9   -53804.3528   -53804.3535   -53804.3535  0.0001 -5.0223
siesta:   10   -53804.3528   -53804.3533   -53804.3533  0.0001 -5.0223
siesta:   11   -53804.3528   -53804.3533   -53804.3533  0.0001 -5.0223
siesta:   12   -53804.3528   -53804.3533   -53804.3533  0.0001 -5.0223
siesta:   13   -53804.3528   -53804.3533   -53804.3533  0.0001 -5.0223
siesta:   14   -53804.3528   -53804.3532   -53804.3532  0.0001 -5.0223

siesta: E_KS(eV) =           -53804.3532

siesta: Atomic forces (eV/Ang):
----------------------------------------
 Tot   -0.001748   -0.000362    0.000564
----------------------------------------
 Max    0.078746
 Res    0.005405    sqrt( Sum f_i^2 / 3N )
----------------------------------------
 Max    0.078746    constrained
 
* Maximum dynamic memory allocated =   242 MB

siesta:                 ==============================
                            Begin FC step =     15
                            displace atom       81
                            in direction         2
                            by        -0.0100 Bohr
                        ==============================

superc: Internal auxiliary supercell:     2 x     2 x     3  =      12
superc: Number of atoms, orbitals, and projectors:   1944 25272 31104

iodm: Reading Density Matrix from files

siesta: iscf   Eharris(eV)      E_KS(eV)   FreeEng(eV)   dDmax  Ef(eV)
siesta:    1   -53804.3529   -53804.4072   -53804.4072  0.0029 -5.0212
siesta:    2   -53804.3528   -53804.3526   -53804.3526  0.0021 -5.0211
siesta:    3   -53804.3524   -53804.3737   -53804.3737  0.0009 -5.0212
siesta:    4   -53804.3526   -53804.3584   -53804.3584  0.0004 -5.0212
siesta:    5   -53804.3527   -53804.3534   -53804.3534  0.0002 -5.0212
siesta:    6   -53804.3527   -53804.3533   -53804.3533  0.0001 -5.0212
siesta:    7   -53804.3527   -53804.3533   -53804.3533  0.0001 -5.0212
siesta:    8   -53804.3527   -53804.3533   -53804.3533  0.0001 -5.0212
siesta:    9   -53804.3527   -53804.3533   -53804.3533  0.0001 -5.0212
siesta:   10   -53804.3527   -53804.3532   -53804.3532  0.0001 -5.0212
siesta:   11   -53804.3527   -53804.3532   -53804.3532  0.0001 -5.0212
siesta:   12   -53804.3527   -53804.3532   -53804.3532  0.0001 -5.0212
siesta:   13   -53804.3527   -53804.3532   -53804.3532  0.0001 -5.0212
siesta:   14   -53804.3527   -53804.3531   -53804.3531  0.0001 -5.0212

siesta: E_KS(eV) =           -53804.3531

siesta: Atomic forces (eV/Ang):
----------------------------------------
 Tot   -0.000244    0.000132    0.000659
----------------------------------------
 Max    0.084495
 Res    0.005727    sqrt( Sum f_i^2 / 3N )
----------------------------------------
 Max    0.084495    constrained
 
* Maximum dynamic memory allocated =   242 MB

siesta:                 ==============================
                            Begin FC step =     16
                            displace atom       81
                            in direction         2
                            by         0.0100 Bohr
                        ==============================

superc: Internal auxiliary supercell:     2 x     2 x     3  =      12
superc: Number of atoms, orbitals, and projectors:   1944 25272 31104

iodm: Reading Density Matrix from files

siesta: iscf   Eharris(eV)      E_KS(eV)   FreeEng(eV)   dDmax  Ef(eV)
siesta:    1   -53804.3529   -53804.4119   -53804.4119  0.0029 -5.0223
siesta:    2   -53804.3525   -53804.3524   -53804.3524  0.0021 -5.0222
siesta:    3   -53804.3525   -53804.3756   -53804.3756  0.0009 -5.0222
siesta:    4   -53804.3527   -53804.3591   -53804.3591  0.0004 -5.0223
siesta:    5   -53804.3528   -53804.3536   -53804.3536  0.0002 -5.0223
siesta:    6   -53804.3529   -53804.3535   -53804.3535  0.0001 -5.0223
siesta:    7   -53804.3529   -53804.3535   -53804.3535  0.0001 -5.0223
siesta:    8   -53804.3529   -53804.3535   -53804.3535  0.0001 -5.0223
siesta:    9   -53804.3529   -53804.3535   -53804.3535  0.0001 -5.0223
siesta:   10   -53804.3529   -53804.3534   -53804.3534  0.0001 -5.0223
siesta:   11   -53804.3529   -53804.3534   -53804.3534  0.0001 -5.0223
siesta:   12   -53804.3529   -53804.3534   -53804.3534  0.0001 -5.0223
siesta:   13   -53804.3529   -53804.3534   -53804.3534  0.0001 -5.0223
siesta:   14   -53804.3528   -53804.3532   -53804.3532  0.0001 -5.0223

siesta: E_KS(eV) =           -53804.3532

siesta: Atomic forces (eV/Ang):
----------------------------------------
 Tot   -0.001222   -0.000897    0.000588
----------------------------------------
 Max    0.078738
 Res    0.005405    sqrt( Sum f_i^2 / 3N )
----------------------------------------
 Max    0.078738    constrained
 
* Maximum dynamic memory allocated =   242 MB

siesta:                 ==============================
                            Begin FC step =     17
                            displace atom       81
                            in direction         3
                            by        -0.0100 Bohr
                        ==============================

superc: Internal auxiliary supercell:     2 x     2 x     3  =      12
superc: Number of atoms, orbitals, and projectors:   1944 25272 31104

iodm: Reading Density Matrix from files

siesta: iscf   Eharris(eV)      E_KS(eV)   FreeEng(eV)   dDmax  Ef(eV)
siesta:    1   -53804.3529   -53804.4095   -53804.4095  0.0026 -5.0217
siesta:    2   -53804.3529   -53804.3526   -53804.3526  0.0025 -5.0216
siesta:    3   -53804.3525   -53804.3756   -53804.3756  0.0010 -5.0217
siesta:    4   -53804.3530   -53804.3597   -53804.3597  0.0005 -5.0217
siesta:    5   -53804.3530   -53804.3536   -53804.3536  0.0001 -5.0217

siesta: E_KS(eV) =           -53804.3534

siesta: Atomic forces (eV/Ang):
----------------------------------------
 Tot   -0.000845   -0.000026    0.000984
----------------------------------------
 Max    0.092574
 Res    0.005277    sqrt( Sum f_i^2 / 3N )
----------------------------------------
 Max    0.092574    constrained
 
* Maximum dynamic memory allocated =   242 MB

siesta:                 ==============================
                            Begin FC step =     18
                            displace atom       81
                            in direction         3
                            by         0.0100 Bohr
                        ==============================

superc: Internal auxiliary supercell:     2 x     2 x     3  =      12
superc: Number of atoms, orbitals, and projectors:   1944 25272 31104

iodm: Reading Density Matrix from files

siesta: iscf   Eharris(eV)      E_KS(eV)   FreeEng(eV)   dDmax  Ef(eV)
siesta:    1   -53804.3529   -53804.4095   -53804.4095  0.0026 -5.0217
siesta:    2   -53804.3529   -53804.3526   -53804.3526  0.0025 -5.0216
siesta:    3   -53804.3526   -53804.3757   -53804.3757  0.0010 -5.0217
siesta:    4   -53804.3530   -53804.3597   -53804.3597  0.0005 -5.0217
siesta:    5   -53804.3530   -53804.3536   -53804.3536  0.0001 -5.0217

siesta: E_KS(eV) =           -53804.3534

siesta: Atomic forces (eV/Ang):
----------------------------------------
 Tot   -0.000851   -0.000003    0.000475
----------------------------------------
 Max    0.092550
 Res    0.005276    sqrt( Sum f_i^2 / 3N )
----------------------------------------
 Max    0.092550    constrained
 
* Maximum dynamic memory allocated =   242 MB

siesta:                 ==============================
                            Begin FC step =     19
                            displace atom       82
                            in direction         1
                            by        -0.0100 Bohr
                        ==============================

superc: Internal auxiliary supercell:     2 x     2 x     3  =      12
superc: Number of atoms, orbitals, and projectors:   1944 25272 31104

iodm: Reading Density Matrix from files

siesta: iscf   Eharris(eV)      E_KS(eV)   FreeEng(eV)   dDmax  Ef(eV)
siesta:    1   -53804.3529   -53804.4073   -53804.4073  0.0029 -5.0212
siesta:    2   -53804.3527   -53804.3525   -53804.3525  0.0021 -5.0211
siesta:    3   -53804.3524   -53804.3736   -53804.3736  0.0009 -5.0212
siesta:    4   -53804.3527   -53804.3585   -53804.3585  0.0004 -5.0212
siesta:    5   -53804.3528   -53804.3535   -53804.3535  0.0002 -5.0212
siesta:    6   -53804.3528   -53804.3533   -53804.3533  0.0001 -5.0212
siesta:    7   -53804.3528   -53804.3533   -53804.3533  0.0001 -5.0212
siesta:    8   -53804.3528   -53804.3533   -53804.3533  0.0001 -5.0212
siesta:    9   -53804.3528   -53804.3533   -53804.3533  0.0001 -5.0212
siesta:   10   -53804.3528   -53804.3532   -53804.3532  0.0001 -5.0212
siesta:   11   -53804.3528   -53804.3532   -53804.3532  0.0001 -5.0212
siesta:   12   -53804.3528   -53804.3532   -53804.3532  0.0001 -5.0212
siesta:   13   -53804.3528   -53804.3532   -53804.3532  0.0001 -5.0212
siesta:   14   -53804.3528   -53804.3532   -53804.3532  0.0001 -5.0212

siesta: E_KS(eV) =           -53804.3532

siesta: Atomic forces (eV/Ang):
----------------------------------------
 Tot   -0.000818   -0.000994    0.000591
----------------------------------------
 Max    0.084466
 Res    0.005726    sqrt( Sum f_i^2 / 3N )
----------------------------------------
 Max    0.084466    constrained
 
* Maximum dynamic memory allocated =   242 MB

siesta:                 ==============================
                            Begin FC step =     20
                            displace atom       82
                            in direction         1
                            by         0.0100 Bohr
                        ==============================

superc: Internal auxiliary supercell:     2 x     2 x     3  =      12
superc: Number of atoms, orbitals, and projectors:   1944 25272 31104

iodm: Reading Density Matrix from files

siesta: iscf   Eharris(eV)      E_KS(eV)   FreeEng(eV)   dDmax  Ef(eV)
siesta:    1   -53804.3529   -53804.4119   -53804.4119  0.0029 -5.0223
siesta:    2   -53804.3526   -53804.3524   -53804.3524  0.0021 -5.0222
siesta:    3   -53804.3526   -53804.3756   -53804.3756  0.0009 -5.0222
siesta:    4   -53804.3528   -53804.3591   -53804.3591  0.0004 -5.0223
siesta:    5   -53804.3529   -53804.3537   -53804.3537  0.0002 -5.0223
siesta:    6   -53804.3528   -53804.3535   -53804.3535  0.0001 -5.0223
siesta:    7   -53804.3528   -53804.3535   -53804.3535  0.0001 -5.0223
siesta:    8   -53804.3528   -53804.3535   -53804.3535  0.0001 -5.0223
siesta:    9   -53804.3528   -53804.3535   -53804.3535  0.0001 -5.0223
siesta:   10   -53804.3528   -53804.3534   -53804.3534  0.0001 -5.0223
siesta:   11   -53804.3528   -53804.3534   -53804.3534  0.0001 -5.0223
siesta:   12   -53804.3528   -53804.3534   -53804.3534  0.0001 -5.0223
siesta:   13   -53804.3528   -53804.3534   -53804.3534  0.0001 -5.0223
siesta:   14   -53804.3528   -53804.3532   -53804.3532  0.0001 -5.0223

siesta: E_KS(eV) =           -53804.3532

siesta: Atomic forces (eV/Ang):
----------------------------------------
 Tot   -0.001767   -0.000034    0.000536
----------------------------------------
 Max    0.078741
 Res    0.005404    sqrt( Sum f_i^2 / 3N )
----------------------------------------
 Max    0.078741    constrained
 
* Maximum dynamic memory allocated =   242 MB

siesta:                 ==============================
                            Begin FC step =     21
                            displace atom       82
                            in direction         2
                            by        -0.0100 Bohr
                        ==============================

superc: Internal auxiliary supercell:     2 x     2 x     3  =      12
superc: Number of atoms, orbitals, and projectors:   1944 25272 31104

iodm: Reading Density Matrix from files

siesta: iscf   Eharris(eV)      E_KS(eV)   FreeEng(eV)   dDmax  Ef(eV)
siesta:    1   -53804.3530   -53804.4119   -53804.4119  0.0029 -5.0223
siesta:    2   -53804.3527   -53804.3525   -53804.3525  0.0021 -5.0222
siesta:    3   -53804.3526   -53804.3756   -53804.3756  0.0009 -5.0222
siesta:    4   -53804.3528   -53804.3591   -53804.3591  0.0004 -5.0223
siesta:    5   -53804.3528   -53804.3536   -53804.3536  0.0002 -5.0223
siesta:    6   -53804.3528   -53804.3535   -53804.3535  0.0001 -5.0223
siesta:    7   -53804.3528   -53804.3535   -53804.3535  0.0001 -5.0223
siesta:    8   -53804.3528   -53804.3535   -53804.3535  0.0001 -5.0223
siesta:    9   -53804.3528   -53804.3535   -53804.3535  0.0001 -5.0223
siesta:   10   -53804.3528   -53804.3533   -53804.3533  0.0001 -5.0223
siesta:   11   -53804.3528   -53804.3533   -53804.3533  0.0001 -5.0223
siesta:   12   -53804.3528   -53804.3533   -53804.3533  0.0001 -5.0223
siesta:   13   -53804.3528   -53804.3533   -53804.3533  0.0001 -5.0223
siesta:   14   -53804.3528   -53804.3532   -53804.3532  0.0001 -5.0223

siesta: E_KS(eV) =           -53804.3532

siesta: Atomic forces (eV/Ang):
----------------------------------------
 Tot   -0.001259    0.000588    0.000601
----------------------------------------
 Max    0.078731
 Res    0.005404    sqrt( Sum f_i^2 / 3N )
----------------------------------------
 Max    0.078731    constrained
 
* Maximum dynamic memory allocated =   242 MB

siesta:                 ==============================
                            Begin FC step =     22
                            displace atom       82
                            in direction         2
                            by         0.0100 Bohr
                        ==============================

superc: Internal auxiliary supercell:     2 x     2 x     3  =      12
superc: Number of atoms, orbitals, and projectors:   1944 25272 31104

iodm: Reading Density Matrix from files

siesta: iscf   Eharris(eV)      E_KS(eV)   FreeEng(eV)   dDmax  Ef(eV)
siesta:    1   -53804.3529   -53804.4073   -53804.4073  0.0029 -5.0212
siesta:    2   -53804.3527   -53804.3525   -53804.3525  0.0021 -5.0211
siesta:    3   -53804.3524   -53804.3736   -53804.3736  0.0009 -5.0212
siesta:    4   -53804.3527   -53804.3586   -53804.3586  0.0004 -5.0212
siesta:    5   -53804.3528   -53804.3535   -53804.3535  0.0002 -5.0212
siesta:    6   -53804.3527   -53804.3533   -53804.3533  0.0001 -5.0212
siesta:    7   -53804.3527   -53804.3533   -53804.3533  0.0001 -5.0212
siesta:    8   -53804.3527   -53804.3533   -53804.3533  0.0001 -5.0212
siesta:    9   -53804.3527   -53804.3533   -53804.3533  0.0001 -5.0212
siesta:   10   -53804.3527   -53804.3532   -53804.3532  0.0001 -5.0212
siesta:   11   -53804.3527   -53804.3532   -53804.3532  0.0001 -5.0212
siesta:   12   -53804.3527   -53804.3532   -53804.3532  0.0001 -5.0212
siesta:   13   -53804.3527   -53804.3532   -53804.3532  0.0001 -5.0212
siesta:   14   -53804.3528   -53804.3531   -53804.3531  0.0001 -5.0212

siesta: E_KS(eV) =           -53804.3531

siesta: Atomic forces (eV/Ang):
----------------------------------------
 Tot   -0.000221   -0.000429    0.000633
----------------------------------------
 Max    0.084481
 Res    0.005726    sqrt( Sum f_i^2 / 3N )
----------------------------------------
 Max    0.084481    constrained
 
* Maximum dynamic memory allocated =   242 MB

siesta:                 ==============================
                            Begin FC step =     23
                            displace atom       82
                            in direction         3
                            by        -0.0100 Bohr
                        ==============================

superc: Internal auxiliary supercell:     2 x     2 x     3  =      12
superc: Number of atoms, orbitals, and projectors:   1944 25272 31104

iodm: Reading Density Matrix from files

siesta: iscf   Eharris(eV)      E_KS(eV)   FreeEng(eV)   dDmax  Ef(eV)
siesta:    1   -53804.3529   -53804.4095   -53804.4095  0.0026 -5.0217
siesta:    2   -53804.3529   -53804.3526   -53804.3526  0.0025 -5.0216
siesta:    3   -53804.3527   -53804.3757   -53804.3757  0.0010 -5.0217
siesta:    4   -53804.3530   -53804.3597   -53804.3597  0.0005 -5.0217
siesta:    5   -53804.3530   -53804.3536   -53804.3536  0.0001 -5.0217

siesta: E_KS(eV) =           -53804.3535

siesta: Atomic forces (eV/Ang):
----------------------------------------
 Tot   -0.000911   -0.000408    0.000948
----------------------------------------
 Max    0.092512
 Res    0.005275    sqrt( Sum f_i^2 / 3N )
----------------------------------------
 Max    0.092512    constrained
 
* Maximum dynamic memory allocated =   242 MB

siesta:                 ==============================
                            Begin FC step =     24
                            displace atom       82
                            in direction         3
                            by         0.0100 Bohr
                        ==============================

superc: Internal auxiliary supercell:     2 x     2 x     3  =      12
superc: Number of atoms, orbitals, and projectors:   1944 25272 31104

iodm: Reading Density Matrix from files

siesta: iscf   Eharris(eV)      E_KS(eV)   FreeEng(eV)   dDmax  Ef(eV)
siesta:    1   -53804.3529   -53804.4095   -53804.4095  0.0026 -5.0217
siesta:    2   -53804.3529   -53804.3526   -53804.3526  0.0025 -5.0216
siesta:    3   -53804.3527   -53804.3758   -53804.3758  0.0010 -5.0217
siesta:    4   -53804.3530   -53804.3598   -53804.3598  0.0005 -5.0217
siesta:    5   -53804.3531   -53804.3537   -53804.3537  0.0001 -5.0217

siesta: E_KS(eV) =           -53804.3535

siesta: Atomic forces (eV/Ang):
----------------------------------------
 Tot   -0.000883   -0.000448    0.000571
----------------------------------------
 Max    0.092525
 Res    0.005276    sqrt( Sum f_i^2 / 3N )
----------------------------------------
 Max    0.092525    constrained
 
* Maximum dynamic memory allocated =   242 MB

siesta:                 ==============================
                            Begin FC step =     25
                            displace atom       83
                            in direction         1
                            by        -0.0100 Bohr
                        ==============================

superc: Internal auxiliary supercell:     2 x     2 x     3  =      12
superc: Number of atoms, orbitals, and projectors:   1944 25272 31104

iodm: Reading Density Matrix from files

siesta: iscf   Eharris(eV)      E_KS(eV)   FreeEng(eV)   dDmax  Ef(eV)
siesta:    1   -53804.3529   -53804.4119   -53804.4119  0.0029 -5.0223
siesta:    2   -53804.3526   -53804.3524   -53804.3524  0.0021 -5.0222
siesta:    3   -53804.3526   -53804.3756   -53804.3756  0.0009 -5.0222
siesta:    4   -53804.3527   -53804.3590   -53804.3590  0.0004 -5.0223
siesta:    5   -53804.3529   -53804.3537   -53804.3537  0.0002 -5.0223
siesta:    6   -53804.3529   -53804.3535   -53804.3535  0.0001 -5.0223
siesta:    7   -53804.3529   -53804.3535   -53804.3535  0.0001 -5.0223
siesta:    8   -53804.3529   -53804.3535   -53804.3535  0.0001 -5.0223
siesta:    9   -53804.3529   -53804.3535   -53804.3535  0.0001 -5.0223
siesta:   10   -53804.3529   -53804.3534   -53804.3534  0.0001 -5.0223
siesta:   11   -53804.3529   -53804.3534   -53804.3534  0.0001 -5.0223
siesta:   12   -53804.3529   -53804.3534   -53804.3534  0.0001 -5.0223
siesta:   13   -53804.3529   -53804.3534   -53804.3534  0.0001 -5.0223
siesta:   14   -53804.3528   -53804.3533   -53804.3533  0.0001 -5.0223

siesta: E_KS(eV) =           -53804.3533

siesta: Atomic forces (eV/Ang):
----------------------------------------
 Tot   -0.000261    0.000019    0.000678
----------------------------------------
 Max    0.078725
 Res    0.005405    sqrt( Sum f_i^2 / 3N )
----------------------------------------
 Max    0.078725    constrained
 
* Maximum dynamic memory allocated =   242 MB

siesta:                 ==============================
                            Begin FC step =     26
                            displace atom       83
                            in direction         1
                            by         0.0100 Bohr
                        ==============================

superc: Internal auxiliary supercell:     2 x     2 x     3  =      12
superc: Number of atoms, orbitals, and projectors:   1944 25272 31104

iodm: Reading Density Matrix from files

siesta: iscf   Eharris(eV)      E_KS(eV)   FreeEng(eV)   dDmax  Ef(eV)
siesta:    1   -53804.3529   -53804.4072   -53804.4072  0.0029 -5.0212
siesta:    2   -53804.3526   -53804.3525   -53804.3525  0.0021 -5.0211
siesta:    3   -53804.3524   -53804.3737   -53804.3737  0.0009 -5.0212
siesta:    4   -53804.3527   -53804.3586   -53804.3586  0.0004 -5.0212
siesta:    5   -53804.3527   -53804.3535   -53804.3535  0.0002 -5.0212
siesta:    6   -53804.3527   -53804.3533   -53804.3533  0.0001 -5.0212
siesta:    7   -53804.3527   -53804.3533   -53804.3533  0.0001 -5.0212
siesta:    8   -53804.3527   -53804.3533   -53804.3533  0.0001 -5.0212
siesta:    9   -53804.3527   -53804.3533   -53804.3533  0.0001 -5.0212
siesta:   10   -53804.3528   -53804.3532   -53804.3532  0.0001 -5.0212
siesta:   11   -53804.3528   -53804.3532   -53804.3532  0.0001 -5.0212
siesta:   12   -53804.3528   -53804.3532   -53804.3532  0.0001 -5.0212
siesta:   13   -53804.3528   -53804.3532   -53804.3532  0.0001 -5.0212
siesta:   14   -53804.3527   -53804.3531   -53804.3531  0.0001 -5.0212

siesta: E_KS(eV) =           -53804.3531

siesta: Atomic forces (eV/Ang):
----------------------------------------
 Tot   -0.001294   -0.001046    0.000613
----------------------------------------
 Max    0.084503
 Res    0.005727    sqrt( Sum f_i^2 / 3N )
----------------------------------------
 Max    0.084503    constrained
 
* Maximum dynamic memory allocated =   242 MB

siesta:                 ==============================
                            Begin FC step =     27
                            displace atom       83
                            in direction         2
                            by        -0.0100 Bohr
                        ==============================

superc: Internal auxiliary supercell:     2 x     2 x     3  =      12
superc: Number of atoms, orbitals, and projectors:   1944 25272 31104

iodm: Reading Density Matrix from files

siesta: iscf   Eharris(eV)      E_KS(eV)   FreeEng(eV)   dDmax  Ef(eV)
siesta:    1   -53804.3530   -53804.4119   -53804.4119  0.0029 -5.0223
siesta:    2   -53804.3526   -53804.3524   -53804.3524  0.0021 -5.0222
siesta:    3   -53804.3526   -53804.3756   -53804.3756  0.0009 -5.0222
siesta:    4   -53804.3528   -53804.3591   -53804.3591  0.0004 -5.0223
siesta:    5   -53804.3529   -53804.3537   -53804.3537  0.0002 -5.0223
[...]
         24.88  24.89  24.90  24.90  24.92  24.94  24.94  24.95  24.98  24.98
         24.98  24.98  25.10  25.12  25.14  25.14  25.18  25.21  25.21  25.21
         25.21  25.21  25.22  25.22  25.24  25.30  25.31  25.37  25.37  25.42
         25.42  25.45  25.45  25.45  25.45  25.45  25.54  25.54  25.55  25.55
         25.55  25.56  25.57  25.63  25.63  25.65  25.65  25.72  25.84  25.89
         25.89  25.91  25.91  25.92  25.99  25.99  26.06  26.07  26.07  26.11
         26.11  26.20  26.24  26.27  26.27  26.28  26.28  26.33  26.40  26.42
         26.42  26.48  26.50  26.50  26.57  26.57  26.58  26.59  26.59  26.74
         26.74  26.77  26.81  26.86  26.86  26.88  26.88  26.89  26.89  26.92
         26.92  26.93  27.01  27.02  27.04  27.04  27.09  27.12  27.12  27.13
         27.18  27.19  27.20  27.20  27.24  27.28  27.28  27.31  27.35  27.47
         27.47  27.55  27.57  27.57  27.65  27.66  27.66  27.69  27.78  27.78
         27.81  27.89  27.89  27.95  27.97  27.99  27.99  28.19  28.21  28.22
         28.22  28.33  28.33  28.43  28.61  28.80  28.89  28.89  28.92  29.09
         29.12  29.12  29.14  29.14  29.14  29.14  29.20  29.22  29.22  29.30
         29.33  29.33  29.44  29.44  29.47  29.47  29.53  29.57  29.62  29.64
         29.64  29.78  29.79  29.79  29.98  30.30  30.37  30.37  30.65  30.70
         30.70  30.78  30.78  30.90  30.97  31.08  31.08  31.10  31.10  31.16
         31.16  31.28  31.29  31.29  31.32  31.39  31.40  31.44  31.44  31.52
         31.52  31.57  31.57  31.58  31.58  31.60  31.62  31.67  31.75  31.80
         31.80  31.83  31.86  31.86  31.90  31.90  31.99  32.04  32.06  32.07
         32.09  32.10  32.10  32.10  32.13  32.22  32.22  32.23  32.23  32.29
         32.31  32.31  32.40  32.48  32.49  32.52  32.52  32.53  32.58  32.59
         32.67  32.67  32.75  32.77  32.78  32.78  32.85  32.85  32.89  32.96
         32.96  32.97  32.97  32.99  32.99  33.11  33.11  33.13  33.14  33.21
         33.37  33.37  33.37  33.63  33.63  33.67  33.67  33.68  33.70  33.70
         33.80  33.80  33.81  33.84  33.84  33.92  33.98  33.98  33.98  34.01
         34.06  34.08  34.09  34.14  34.15  34.15  34.18  34.18  34.25  34.28
         34.43  34.43  34.47  34.47  34.49  34.49  34.49  34.52  34.52  34.54
         34.61  34.61  34.62  34.62  34.62  34.63  34.63  34.76  34.87  34.97
         35.08  35.08  35.08  35.08  35.10  35.14  35.14  35.18  35.18  35.23
         35.23  35.26  35.26  35.37  35.37  35.64  35.70  35.70  35.76  36.08
         36.08  36.34  36.34  36.38  36.43  36.43  36.87  36.87  36.90  36.97
         36.97  36.98  36.98  37.15  37.23  37.23  37.52  37.83  37.83  37.89
         37.91  37.91  37.97  37.97  37.99  38.04  38.04  38.25  38.25  38.30
         38.44  38.47  38.55  38.55  38.71  38.72  38.72  38.83  38.83  38.95
         39.10  39.10  39.11  39.11  39.20  39.20  39.21  39.29  39.30  39.30
         39.35  39.40  39.46  39.46  39.46  39.50  39.50  39.56  39.56  39.62
         39.66  39.66  39.77  39.77  39.78  39.78  39.81  39.98  40.23  40.23
         40.24  40.32  40.32  40.44  40.44  40.53  40.56  40.56  40.66  40.67
         40.67  40.67  40.69  40.71  40.72  40.78  40.83  41.03  41.03  41.06
         41.11  41.27  41.27  41.30  41.30  41.44  41.44  41.58  42.08  42.08
         42.11  42.25  42.25  42.58  43.75  43.83  44.12  44.18  46.76  46.76
         47.01  47.01  47.04  47.04  47.10  47.15  47.15  47.15  47.16  47.23
         47.23  47.23  47.25  47.25  47.25  47.30  47.30  47.30  47.32  47.32
         47.34  47.38  47.39  47.40  47.40  47.42  47.42  47.45  47.45  47.46
         47.50  47.59  47.59  47.61  47.62  47.62  47.66  47.66  47.68  47.71
         47.71  47.73  47.73  47.73  47.74  47.81  47.81  47.84  47.84  47.85
         47.89  47.96  48.00  48.00  48.06  48.19  48.19  48.39  48.39  48.39
         48.50  48.50  48.51  48.51  48.51  48.57  48.57  48.62  48.62  48.67
         48.67  48.70  48.71  48.76  48.80  48.80  48.81  48.81  48.86  48.87
         48.87  49.01  49.01  49.02  49.09  49.09  49.11  49.26  49.26  49.27
         49.28  49.28  49.37  49.42  49.42  49.45  49.54  49.54  49.56  49.64
         49.64  49.65  49.66  49.66  49.73  49.73  49.84  49.85  49.99  49.99
         50.00  50.01  50.01  50.05  50.09  50.12  50.18  50.19  50.19  50.19
         50.19  50.24  50.28  50.30  50.31  50.35  50.35  50.44  50.44  50.46
         50.46  50.48  50.50  50.50  50.50  50.51  50.65  50.65  50.65  50.65
         50.66  50.67  50.67  50.72  50.72  50.74  50.74  50.75  50.75  50.77
         50.77  50.77  50.87  50.87  51.03  51.16  51.17  51.18  51.18  51.26
         51.30  51.41  51.42  51.42  51.51  51.55  51.79  51.97  51.97  52.07
         52.07  52.13  52.14  52.20  52.20  52.23  52.23  52.26  52.48  52.49
         52.50  52.57  52.58  52.59  52.60  52.60  52.60  52.63  52.63  52.67
         52.67  52.68  52.68  52.71  52.74  52.75  52.76  52.79  52.79  52.83
         52.83  52.83  52.83  52.85  52.85  52.89  52.89  52.90  52.93  52.94
         52.97  52.98  53.02  53.02  53.03  53.03  53.03  53.09  53.11  53.13
         53.14  53.14  53.14  53.14  53.14  53.14  53.18  53.20  53.23  53.24
         53.24  53.48  53.50  53.54  53.54  53.54  53.57  53.57  53.58  53.58
         53.66  53.68  53.77  53.77  53.79  53.80  53.80  53.82  53.82  53.83
         53.84  53.84  53.88  53.91  53.91  54.03  54.04  54.04  54.10  54.10
         54.16  54.18  54.18  54.51  54.51  54.55  54.55  54.57  54.57  54.60
         54.60  54.66  54.66  54.70  54.70  54.71  54.71  54.83  54.85  54.85
         54.89  54.89  55.01  55.07  55.08  55.08  55.09  55.13  55.13  55.14
         55.18  55.23  55.23  55.25  55.25  55.27  55.38  55.38  55.39  55.39
         55.43  55.45  55.48  55.50  55.50  55.52  55.54  55.54  55.57  55.57
         55.58  55.63  55.63  55.63  55.63  55.67  55.67  55.68  55.70  55.70
         55.75  55.75  55.76  55.76  55.76  55.79  55.79  55.82  55.82  55.88
         55.88  55.88  55.98  56.02  56.02  56.03  56.04  56.04  56.04  56.04
         56.04  56.04  56.05  56.05  56.09  56.09  56.18  56.19  56.25  56.25
         56.33  56.34  56.35  56.35  56.35  56.35  56.56  56.56  56.79  56.79
         57.07  57.08  57.08  57.15  57.16  57.16  57.18  57.18  57.29  57.29
         57.39  57.39  57.45  57.45  57.63  57.63  57.75  57.82  57.82  57.83
         57.87  57.87  57.89  58.01  58.01  58.04  58.04  58.05  58.08  58.08
         58.14  58.16  58.16  58.19  58.19  58.20  58.20  58.23  58.26  58.26
         58.27  58.27  58.28  58.34  58.34  58.56  58.57  58.57  58.57  58.66
         58.72  58.72  58.77  58.77  58.78  58.78  58.78  58.85  58.85  58.95
         58.99  58.99  59.27  59.32  59.33  59.33  59.43  59.48  59.55  59.57
         59.70  59.70  59.81  59.83  59.83  59.85  59.87  59.92  59.96  59.96
         60.05  60.05  60.08  60.09  60.18  60.18  60.20  60.20  60.23  60.28
         60.39  60.47  60.47  60.47  60.47  60.54  60.54  60.63  60.63  60.78
         60.79  60.79  60.80  60.86  60.88  60.91  60.91  61.08  61.08  61.11
         61.11  61.12  61.12  61.14  61.14  61.15  61.18  61.20  61.36  61.36
         61.38  61.39  61.40  61.40  61.52  61.52  61.52  61.54  61.57  61.57
         61.57  61.57  61.59  61.59  61.60  61.60  61.60  61.60  61.62  61.67
         61.73  61.79  61.88  61.90  61.90  61.96  61.96  62.10  62.11  62.11
         62.17  62.21  62.21  62.24  62.25  62.25  62.27  62.32  62.34  62.34
         62.36  62.36  62.40  62.52  62.52  62.58  62.67  62.67  62.68  62.75
         62.75  62.76  62.76  62.78  62.85  62.86  62.87  62.87  63.12  63.14
         63.18  63.21  63.30  63.36  63.36  63.52  63.52  63.64  63.81  63.82
         64.24  64.24  64.43  64.43  65.32  65.34  65.34  65.34  65.45  65.73
         65.74  65.74  65.90  65.93  65.95  65.98  65.98  66.18  66.18  66.91
         66.91  67.16  67.16  67.52  68.34  68.35  68.67  68.67  69.59  69.59
         69.93  70.39  70.40  70.49  70.76  70.78  71.25  71.25  71.49  71.98
         71.98  72.95  81.58  81.58  81.86  81.91  82.44  82.44  82.67  83.02
         83.95  84.23  84.51  84.51  84.59  84.62  84.84  84.84  84.98  85.05
         85.05  85.48  85.55  85.58  85.58  85.72  85.72  85.77  85.77  85.81
         85.81  85.88  85.91  86.00  86.00  86.03  86.03  86.20  86.21  86.27
         86.34  86.56  86.56  86.66  86.66  87.30  87.47  87.47  87.87  87.87
         88.41  88.41  89.02  89.02  91.19  91.48
siesta: Fermi energy =      -5.021708 eV

siesta: Program's energy decomposition (eV):
siesta:-Eions   =  -90182.585857
siesta: Ena     =   20822.122381
siesta: Ekin    =   36208.585669
siesta: Enl     =   -5074.530467
siesta: DEna    =   -2382.119200
siesta: DUscf   =     367.800661
siesta: DUext   =       0.000000
siesta: Exc     =  -13563.626713
siesta: eta*DQ  =       0.000000
siesta: Emadel  =       0.000000
siesta: Ekinion =       0.000000
siesta: Eharris =  -53804.353071
siesta: Etot    =  -53804.353527
siesta: FreeEng =  -53804.353527

siesta: Final energy (eV):
siesta:       Kinetic =   36208.585669
siesta:       Hartree =   14730.504053
siesta:    Ext. field =       0.000000
siesta:   Exch.-corr. =  -13563.626713
siesta:  Ion-electron =  -60531.569714
siesta:       Ion-ion =  -30648.246821
siesta:       Ekinion =       0.000000
siesta:         Total =  -53804.353527

siesta: Atomic forces (eV/Ang):
siesta:    1    0.000039    0.000028   -0.000050
siesta:    2   -0.000005   -0.000074   -0.000064
siesta:    3    0.002875    0.002869    0.000075
siesta:    4    0.003023   -0.002958   -0.000004
siesta:    5   -0.002899   -0.002880    0.000297
siesta:    6   -0.002858    0.002993    0.000126
siesta:    7    0.000043    0.000004    0.000023
siesta:    8   -0.000030   -0.000009    0.000129
siesta:    9    0.002914    0.002899   -0.000003
siesta:   10    0.002886   -0.002856   -0.000036
siesta:   11   -0.002886   -0.002827   -0.000124
siesta:   12   -0.002878    0.002876   -0.000282
siesta:   13    0.000041   -0.000031    0.000041
siesta:   14    0.000029    0.000036   -0.000096
siesta:   15    0.002841    0.002845   -0.000001
siesta:   16    0.002714   -0.002758    0.000004
siesta:   17   -0.002896   -0.002922   -0.000118
siesta:   18   -0.002877    0.002744    0.000142
siesta:   19    0.000034    0.000032   -0.000288
siesta:   20   -0.001279   -0.001007   -0.002575
siesta:   21    0.002886    0.002879    0.000345
siesta:   22    0.003129   -0.002351    0.000711
siesta:   23   -0.002909   -0.002876    0.001659
siesta:   24   -0.002263    0.002566    0.000532
siesta:   25   -0.000420   -0.000412    0.000133
siesta:   26   -0.000045   -0.000001    0.004830
siesta:   27    0.003900    0.003967   -0.000221
siesta:   28    0.002867   -0.002851   -0.001473
siesta:   29    0.002684   -0.000717    0.001798
siesta:   30   -0.002873    0.002882   -0.000816
siesta:   31    0.000411    0.000358    0.000141
siesta:   32    0.001282    0.000984   -0.002621
siesta:   33    0.001836    0.001765   -0.000211
siesta:   34    0.002632   -0.003385    0.000724
siesta:   35   -0.008506   -0.005066    0.001795
siesta:   36   -0.003471    0.003186    0.000543
siesta:   37    0.000048    0.000012   -0.000627
siesta:   38   -0.000374    0.000373   -0.000054
siesta:   39    0.002871    0.002861    0.000270
siesta:   40    0.004015   -0.004017    0.001499
siesta:   41   -0.002890   -0.002883    0.000283
siesta:   42   -0.002874    0.002875    0.000013
siesta:   43   -0.000343    0.000247    0.000294
siesta:   44   -0.000040   -0.000025   -0.000152
siesta:   45    0.003015    0.002764   -0.000206
siesta:   46    0.002876   -0.002881   -0.004013
siesta:   47   -0.002772   -0.003019   -0.000206
siesta:   48   -0.002872    0.002864   -0.000063
siesta:   49    0.000271   -0.000291    0.000299
siesta:   50    0.000326   -0.000391   -0.000106
siesta:   51    0.002740    0.003009   -0.000207
siesta:   52    0.001718   -0.001719    0.001501
siesta:   53   -0.003019   -0.002740   -0.000207
siesta:   54   -0.002858    0.002850    0.000009
siesta:   55    0.000038    0.000027   -0.000623
siesta:   56    0.000203   -0.000219   -0.000130
siesta:   57    0.002875    0.002873    0.000288
siesta:   58    0.002884   -0.002968    0.000123
siesta:   59   -0.002901   -0.002883    0.000275
siesta:   60   -0.002967    0.003479    0.000505
siesta:   61   -0.000201    0.000293    0.000294
siesta:   62   -0.000029   -0.000008    0.000264
siesta:   63    0.002894    0.002878   -0.000109
siesta:   64    0.002893   -0.002863   -0.000270
siesta:   65   -0.002967   -0.002758   -0.000117
siesta:   66   -0.002871    0.002871   -0.000781
siesta:   67    0.000199   -0.000308    0.000302
siesta:   68   -0.000193    0.000191   -0.000159
siesta:   69    0.002852    0.002859   -0.000109
siesta:   70    0.002878   -0.002764    0.000143
siesta:   71   -0.002807   -0.002989   -0.000108
siesta:   72   -0.002769    0.002261    0.000506
siesta:   73    0.000033    0.000033   -0.001355
siesta:   74    0.002301   -0.002260   -0.003814
siesta:   75    0.002883    0.002877    0.001596
siesta:   76    0.002354   -0.002349    0.000601
siesta:   77   -0.002895   -0.002883    0.001595
siesta:   78   -0.002448    0.002449    0.006818
siesta:   79   -0.001525   -0.002153    0.000738
siesta:   80   -0.000082    0.000036    0.010473
siesta:   81    0.002328    0.008233    0.001873
siesta:   82    0.002855   -0.002862   -0.000894
siesta:   83   -0.008241   -0.002323    0.001884
siesta:   84   -0.002649    0.002662   -0.092521
siesta:   85    0.001482    0.002107    0.000742
siesta:   86   -0.002326    0.002262   -0.003849
siesta:   87    0.003461   -0.002493    0.001850
siesta:   88    0.003399   -0.003397    0.000607
siesta:   89    0.002492   -0.003444    0.001839
siesta:   90   -0.003280    0.003274    0.006847
siesta:   91    0.000052    0.000005   -0.005438
siesta:   92    0.001005    0.001322   -0.002566
siesta:   93    0.002878    0.002882    0.001663
siesta:   94    0.002351   -0.003128    0.000708
siesta:   95   -0.002903   -0.002891    0.000345
siesta:   96   -0.002553    0.002259    0.000529
siesta:   97    0.011139   -0.011192    0.030425
siesta:   98   -0.000037   -0.000025    0.004840
siesta:   99    0.000714   -0.002713    0.001799
siesta:  100    0.002863   -0.002871   -0.001463
siesta:  101   -0.003973   -0.003887   -0.000207
siesta:  102   -0.002872    0.002862   -0.000817
siesta:  103   -0.011744    0.011671    0.031158
siesta:  104   -0.001063   -0.001332   -0.002617
siesta:  105    0.005063    0.008516    0.001802
siesta:  106    0.003388   -0.002631    0.000718
siesta:  107   -0.001779   -0.001834   -0.000200
siesta:  108   -0.003181    0.003450    0.000535
siesta:  109    0.000024    0.000042   -0.000290
siesta:  110    0.000039   -0.000045   -0.000001
siesta:  111    0.002874    0.002872    0.000073
siesta:  112    0.002876   -0.002855    0.000014
siesta:  113   -0.002896   -0.002875    0.000065
siesta:  114   -0.003019    0.003027    0.000009
siesta:  115    0.000458    0.000418    0.000133
siesta:  116   -0.000029   -0.000008    0.000049
siesta:  117    0.002879    0.002892   -0.000015
siesta:  118    0.002890   -0.002863   -0.000028
siesta:  119   -0.002917   -0.002875    0.000001
siesta:  120   -0.002876    0.002875   -0.000060
siesta:  121   -0.000457   -0.000433    0.000143
siesta:  122   -0.000090    0.000024   -0.000052
siesta:  123    0.002882    0.002854   -0.000009
siesta:  124    0.002871   -0.002866    0.000018
siesta:  125   -0.002859   -0.002871    0.000004
siesta:  126   -0.002708    0.002714    0.000016
siesta:  127    0.000008    0.000045   -0.000703
siesta:  128    0.000185   -0.000152   -0.000126
siesta:  129    0.002877    0.002874    0.000280
siesta:  130    0.002973   -0.002864    0.000129
siesta:  131   -0.002901   -0.002885    0.000288
siesta:  132   -0.003479    0.002974    0.000504
siesta:  133    0.000298   -0.000351    0.000356
siesta:  134   -0.000041   -0.000004    0.000280
siesta:  135    0.002760    0.002952   -0.000116
siesta:  136    0.002870   -0.002874   -0.000275
siesta:  137   -0.002897   -0.002898   -0.000115
siesta:  138   -0.002866    0.002870   -0.000793
siesta:  139   -0.000380    0.000307    0.000360
siesta:  140   -0.000261    0.000132   -0.000158
siesta:  141    0.002980    0.002791   -0.000118
siesta:  142    0.002764   -0.002860    0.000139
siesta:  143   -0.002875   -0.002844   -0.000112
siesta:  144   -0.002266    0.002775    0.000508
siesta:  145   -0.000040    0.000025   -0.001368
siesta:  146    0.000036    0.000055   -0.000069
siesta:  147    0.002876    0.002863    0.000291
siesta:  148    0.002964   -0.003007    0.000001
siesta:  149   -0.002898   -0.002880    0.000075
siesta:  150   -0.002988    0.002853    0.000129
siesta:  151    0.002101    0.001523    0.000739
siesta:  152   -0.000034   -0.000028    0.000156
siesta:  153    0.002829    0.002865   -0.000128
siesta:  154    0.002868   -0.002866   -0.000035
siesta:  155   -0.002918   -0.002908   -0.000003
siesta:  156   -0.002874    0.002867   -0.000291
siesta:  157   -0.002185   -0.001548    0.000742
siesta:  158   -0.000121   -0.000067   -0.000090
siesta:  159    0.002923    0.002881   -0.000126
siesta:  160    0.002758   -0.002707    0.000000
siesta:  161   -0.002865   -0.002839   -0.000012
siesta:  162   -0.002737    0.002861    0.000133
siesta: ----------------------------------------
siesta:  Tot   -0.001299   -0.000025    0.000472

siesta: Stress tensor (static) (eV/Ang**3):
siesta:    -0.000101    0.000000    0.000018
siesta:     0.000000   -0.000101   -0.000018
siesta:     0.000017   -0.000017    0.000453

siesta: Cell volume =       1966.331370 Ang**3

siesta: Pressure (static):
siesta:                Solid            Molecule  Units
siesta:          -0.00000091         -0.00000122  Ry/Bohr**3
siesta:          -0.00008347         -0.00011219  eV/Ang**3
siesta:          -0.13373973         -0.17974501  kBar
 
* Maximum dynamic memory allocated : Node    0 =   242 MB
* Maximum dynamic memory allocated : Node    1 =   239 MB
* Maximum dynamic memory allocated : Node    2 =   240 MB
* Maximum dynamic memory allocated : Node    3 =   240 MB
* Maximum dynamic memory allocated : Node    4 =   239 MB
* Maximum dynamic memory allocated : Node    5 =   241 MB
* Maximum dynamic memory allocated : Node    6 =   239 MB
* Maximum dynamic memory allocated : Node    7 =   239 MB
* Maximum memory occured during matrixMtoO                    

timer: CPU execution times:
timer:  Routine       Calls   Time/call    Tot.time        %
timer:  siesta            1 4514964.292 4514964.292   100.00
timer:  Setup             1       5.550       5.550     0.00
timer:  bands             1       0.015       0.015     0.00
timer:  writewave         1       0.032       0.032     0.00
timer:  KSV_init          1       0.016       0.016     0.00
timer:  IterMD           37  122025.860 4514956.803   100.00
timer:  hsparse          38     150.139    5705.265     0.13
timer:  overfsm          74       2.803     207.430     0.00
timer:  IterSCF         377   11938.804 4500929.066    99.69
timer:  kinefsm          74       2.896     214.322     0.00
timer:  nlefsm           74     130.023    9621.687     0.21
timer:  DHSCF           377     565.142  213058.507     4.72
timer:  DHSCF1            1       4.640       4.640     0.00
timer:  DHSCF2           37     114.689    4243.479     0.09
timer:  REORD          2336       0.007      16.257     0.00
timer:  POISON          414       1.057     437.748     0.01
timer:  DHSCF3          377     516.296  194643.776     4.31
timer:  rhoofd          377     218.717   82456.347     1.83
timer:  CELLXC          377       1.443     544.044     0.01
timer:  vmat            377     260.061   98043.134     2.17
timer:  diagon          340   12574.661 4275384.615    94.69
timer:  cdiag         12240     130.836 1601436.660    35.47
timer:  DHSCF4           37     381.436   14113.127     0.31
timer:  dfscf            37     368.737   13643.256     0.30
  
>> End of run:  20-SEP-2005  22:27:00
