       N       E                     dE             d eps       ncg     rms          rms(c)
DAV:   1     0.122221280409E+05    0.12222E+05   -0.38293E+05  1080   0.131E+03
DAV:   2     0.287639473382E+04   -0.93457E+04   -0.87649E+04  1380   0.338E+02
DAV:   3    -0.776558365573E+03   -0.36530E+04   -0.35725E+04  1500   0.201E+02
DAV:   4    -0.111789766449E+04   -0.34134E+03   -0.34074E+03  1380   0.806E+01
DAV:   5    -0.113194605722E+04   -0.14048E+02   -0.14040E+02  1620   0.175E+01    0.860E+01
DAV:   6    -0.949891652135E+03    0.18205E+03   -0.26769E+03  1320   0.522E+01    0.123E+02
DAV:   7    -0.929995903312E+03    0.19896E+02   -0.34040E+03  1620   0.791E+01    0.366E+01
DAV:   8    -0.916625507913E+03    0.13370E+02   -0.14769E+02  1500   0.192E+01    0.344E+01
DAV:   9    -0.891745815154E+03    0.24880E+02   -0.57103E+01  1500   0.102E+01    0.202E+01
DAV:  10    -0.889219838743E+03    0.25260E+01   -0.19228E+02  1620   0.158E+01    0.264E+01
DAV:  11    -0.885342168779E+03    0.38777E+01   -0.25793E+01  1560   0.717E+00    0.179E+01
DAV:  12    -0.882964699010E+03    0.23775E+01   -0.98161E+00  1560   0.350E+00    0.905E+00
DAV:  13    -0.882821051285E+03    0.14365E+00   -0.12239E+00  1560   0.180E+00    0.812E+00
DAV:  14    -0.882188506610E+03    0.63254E+00   -0.41699E+00  1500   0.213E+00    0.274E+00
DAV:  15    -0.882098627072E+03    0.89880E-01   -0.50042E-01  1500   0.126E+00    0.144E+00
DAV:  16    -0.882075873259E+03    0.22754E-01   -0.21271E-01  1620   0.725E-01    0.827E-01
DAV:  17    -0.882070761362E+03    0.51119E-02   -0.32179E-01  1500   0.693E-01    0.929E-01
DAV:  18    -0.882066787965E+03    0.39734E-02   -0.25534E-02  1560   0.273E-01    0.924E-01
DAV:  19    -0.882062526439E+03    0.42615E-02   -0.75362E-02  1500   0.357E-01    0.530E-01
DAV:  20    -0.882070146074E+03   -0.76196E-02   -0.23126E-02  1560   0.213E-01    0.480E-01
DAV:  21    -0.882071203162E+03   -0.10571E-02   -0.27012E-02  1500   0.222E-01    0.203E-01
DAV:  22    -0.882072589850E+03   -0.13867E-02   -0.58029E-03  1440   0.106E-01    0.111E-01
DAV:  23    -0.882074847421E+03   -0.22576E-02   -0.19902E-03  1380   0.646E-02    0.890E-02
DAV:  24    -0.882080708933E+03   -0.58615E-02   -0.51122E-03  1500   0.784E-02    0.160E-01
DAV:  25    -0.882086536702E+03   -0.58278E-02   -0.18785E-03  1380   0.628E-02    0.667E-02
DAV:  26    -0.882087996883E+03   -0.14602E-02   -0.79978E-04  1320   0.360E-02    0.481E-02
DAV:  27    -0.882090097847E+03   -0.21010E-02   -0.40200E-04  1080   0.269E-02    0.355E-02
DAV:  28    -0.882091057519E+03   -0.95967E-03   -0.30800E-04  1140   0.214E-02    0.414E-02
DAV:  29    -0.882091249750E+03   -0.19223E-03   -0.61502E-05   960   0.144E-02    0.289E-02
DAV:  30    -0.882091455707E+03   -0.20596E-03   -0.26816E-04  1140   0.190E-02    0.106E-02
DAV:  31    -0.882091563345E+03   -0.10764E-03   -0.74648E-05  1020   0.105E-02    0.103E-02
DAV:  32    -0.882091591641E+03   -0.28295E-04   -0.21464E-05   900   0.669E-03
   1 F= -.88209159E+03 E0= -.88209159E+03  d E =-.882092E+03
       N       E                     dE             d eps       ncg     rms          rms(c)
DAV:   1    -0.882115790091E+03   -0.88212E+03   -0.31653E+01  1080   0.745E+00    0.868E-01
DAV:   2    -0.882201815016E+03   -0.86025E-01   -0.11355E+00  1560   0.187E+00    0.708E-01
DAV:   3    -0.882199807130E+03    0.20079E-02   -0.10188E-01  1500   0.476E-01    0.511E-01
DAV:   4    -0.882197767048E+03    0.20401E-02   -0.45605E-02  1440   0.267E-01    0.312E-01
DAV:   5    -0.882196508372E+03    0.12587E-02   -0.10154E-02  1500   0.161E-01    0.161E-01
DAV:   6    -0.882196513105E+03   -0.47331E-05   -0.65161E-03  1500   0.113E-01    0.154E-01
DAV:   7    -0.882196323766E+03    0.18934E-03   -0.33918E-03  1500   0.755E-02    0.504E-02
DAV:   8    -0.882196394710E+03   -0.70943E-04   -0.61884E-04  1260   0.326E-02
   2 F= -.88219639E+03 E0= -.88219639E+03  d E =-.104803E+00
       N       E                     dE             d eps       ncg     rms          rms(c)
DAV:   1    -0.882054073115E+03   -0.88205E+03   -0.83473E+01  1080   0.121E+01    0.143E+00
DAV:   2    -0.882289508139E+03   -0.23544E+00   -0.31244E+00  1620   0.308E+00    0.121E+00
DAV:   3    -0.882284291458E+03    0.52167E-02   -0.30571E-01  1500   0.786E-01    0.857E-01
DAV:   4    -0.882277578516E+03    0.67129E-02   -0.13024E-01  1440   0.436E-01    0.502E-01
DAV:   5    -0.882274593192E+03    0.29853E-02   -0.26545E-02  1440   0.248E-01    0.260E-01
DAV:   6    -0.882274571186E+03    0.22006E-04   -0.16397E-02  1560   0.176E-01    0.242E-01
DAV:   7    -0.882274164225E+03    0.40696E-03   -0.87544E-03  1500   0.119E-01    0.763E-02
DAV:   8    -0.882274377389E+03   -0.21316E-03   -0.13173E-03  1500   0.480E-02    0.462E-02
DAV:   9    -0.882274444816E+03   -0.67427E-04   -0.19970E-04  1020   0.237E-02
   3 F= -.88227444E+03 E0= -.88227444E+03  d E =-.182853E+00
       N       E                     dE             d eps       ncg     rms          rms(c)
DAV:   1    -0.882308736702E+03   -0.88231E+03   -0.17659E+01  1200   0.555E+00    0.436E-01
DAV:   2    -0.882346004920E+03   -0.37268E-01   -0.39817E-01  1200   0.102E+00    0.280E-01
DAV:   3    -0.882345293023E+03    0.71190E-03   -0.20533E-02  1440   0.210E-01    0.192E-01
DAV:   4    -0.882344311566E+03    0.98146E-03   -0.91724E-03  1680   0.137E-01    0.166E-01
DAV:   5    -0.882343483395E+03    0.82817E-03   -0.41717E-03  1440   0.103E-01    0.838E-02
DAV:   6    -0.882343423717E+03    0.59678E-04   -0.21240E-03  1500   0.684E-02    0.780E-02
DAV:   7    -0.882343295869E+03    0.12785E-03   -0.90500E-04  1320   0.369E-02    0.287E-02
DAV:   8    -0.882343243466E+03    0.52403E-04   -0.18740E-04  1020   0.274E-02
   4 F= -.88234324E+03 E0= -.88234324E+03  d E =-.687986E-01
       N       E                     dE             d eps       ncg     rms          rms(c)
DAV:   1    -0.882196297915E+03   -0.88220E+03   -0.15893E+02  1080   0.168E+01    0.133E+00
DAV:   2    -0.882539934600E+03   -0.34364E+00   -0.37139E+00  1200   0.311E+00    0.117E+00
DAV:   3    -0.882525370285E+03    0.14564E-01   -0.28398E-01  1560   0.710E-01    0.608E-01
DAV:   4    -0.882513204816E+03    0.12165E-01   -0.60947E-02  1620   0.353E-01    0.496E-01
DAV:   5    -0.882502184938E+03    0.11020E-01   -0.39626E-02  1380   0.345E-01    0.191E-01
DAV:   6    -0.882502043280E+03    0.14166E-03   -0.22925E-02  1560   0.224E-01    0.208E-01
DAV:   7    -0.882500976271E+03    0.10670E-02   -0.44359E-03  1560   0.988E-02    0.763E-02
DAV:   8    -0.882500562106E+03    0.41417E-03   -0.19421E-03  1500   0.631E-02    0.559E-02
DAV:   9    -0.882500386933E+03    0.17517E-03   -0.63185E-04  1260   0.365E-02    0.413E-02
DAV:  10    -0.882500375527E+03    0.11406E-04   -0.59863E-04  1260   0.356E-02
   5 F= -.88250038E+03 E0= -.88250038E+03  d E =-.225931E+00
       N       E                     dE             d eps       ncg     rms          rms(c)
DAV:   1    -0.881210223542E+03   -0.88121E+03   -0.63329E+02  1080   0.345E+01    0.302E+00
DAV:   2    -0.882884434516E+03   -0.16742E+01   -0.18826E+01  1320   0.692E+00    0.385E+00
DAV:   3    -0.882666193634E+03    0.21824E+00   -0.16738E+00  1440   0.177E+00    0.147E+00
DAV:   4    -0.882606089299E+03    0.60104E-01   -0.17397E-01  1500   0.689E-01    0.959E-01
DAV:   5    -0.882574254016E+03    0.31835E-01   -0.19458E-01  1440   0.601E-01    0.705E-01
DAV:   6    -0.882558701950E+03    0.15552E-01   -0.80091E-02  1380   0.440E-01    0.240E-01
DAV:   7    -0.882555875215E+03    0.28267E-02   -0.15551E-02  1500   0.176E-01    0.111E-01
DAV:   8    -0.882554711302E+03    0.11639E-02   -0.37299E-03  1500   0.885E-02    0.932E-02
DAV:   9    -0.882553692610E+03    0.10187E-02   -0.17120E-03  1560   0.589E-02    0.656E-02
DAV:  10    -0.882553192842E+03    0.49977E-03   -0.77625E-04  1320   0.407E-02    0.296E-02
DAV:  11    -0.882552987358E+03    0.20548E-03   -0.33169E-04  1200   0.282E-02    0.317E-02
DAV:  12    -0.882553078777E+03   -0.91419E-04   -0.26690E-04  1200   0.273E-02
   6 F= -.88255308E+03 E0= -.88255308E+03  d E =-.278634E+00
       N       E                     dE             d eps       ncg     rms          rms(c)
DAV:   1    -0.882455737962E+03   -0.88246E+03   -0.63770E+01  1080   0.108E+01    0.882E-01
DAV:   2    -0.882595731196E+03   -0.13999E+00   -0.15201E+00  1260   0.197E+00    0.703E-01
DAV:   3    -0.882587936118E+03    0.77951E-02   -0.10477E-01  1500   0.476E-01    0.444E-01
DAV:   4    -0.882584138693E+03    0.37974E-02   -0.31271E-02  1560   0.255E-01    0.296E-01
DAV:   5    -0.882579993352E+03    0.41453E-02   -0.13819E-02  1440   0.231E-01    0.155E-01
DAV:   6    -0.882580082350E+03   -0.88998E-04   -0.11940E-02  1560   0.155E-01    0.151E-01
DAV:   7    -0.882579767148E+03    0.31520E-03   -0.33465E-03  1500   0.755E-02    0.483E-02
DAV:   8    -0.882579711696E+03    0.55452E-04   -0.92970E-04  1440   0.520E-02
   7 F= -.88257971E+03 E0= -.88257971E+03  d E =-.305267E+00
       N       E                     dE             d eps       ncg     rms          rms(c)
DAV:   1    -0.882443719056E+03   -0.88244E+03   -0.85361E+01  1080   0.130E+01    0.130E+00
DAV:   2    -0.882676293504E+03   -0.23257E+00   -0.28583E+00  1560   0.308E+00    0.934E-01
DAV:   3    -0.882682213754E+03   -0.59202E-02   -0.30375E-01  1620   0.734E-01    0.851E-01
DAV:   4    -0.882673465344E+03    0.87484E-02   -0.89068E-02  1440   0.365E-01    0.400E-01
DAV:   5    -0.882670967951E+03    0.24974E-02   -0.15563E-02  1380   0.261E-01    0.209E-01
DAV:   6    -0.882671350128E+03   -0.38218E-03   -0.13325E-02  1500   0.163E-01    0.187E-01
DAV:   7    -0.882671144058E+03    0.20607E-03   -0.37433E-03  1500   0.983E-02    0.139E-01
DAV:   8    -0.882671091877E+03    0.52181E-04   -0.34701E-03  1500   0.100E-01    0.788E-02
DAV:   9    -0.882671129284E+03   -0.37407E-04   -0.14911E-03  1440   0.505E-02    0.568E-02
DAV:  10    -0.882671150396E+03   -0.21111E-04   -0.86075E-04  1140   0.369E-02
   8 F= -.88267115E+03 E0= -.88267115E+03  d E =-.914387E-01
       N       E                     dE             d eps       ncg     rms          rms(c)
DAV:   1    -0.881796684578E+03   -0.88180E+03   -0.32780E+02  1080   0.259E+01    0.265E+00
DAV:   2    -0.882774712257E+03   -0.97803E+00   -0.12037E+01  1620   0.615E+00    0.207E+00
DAV:   3    -0.882771502841E+03    0.32094E-02   -0.11808E+00  1500   0.143E+00    0.155E+00
DAV:   4    -0.882742175538E+03    0.29327E-01   -0.37070E-01  1620   0.735E-01    0.820E-01
DAV:   5    -0.882731726221E+03    0.10449E-01   -0.63454E-02  1440   0.458E-01    0.388E-01
DAV:   6    -0.882732654075E+03   -0.92785E-03   -0.39857E-02  1500   0.280E-01    0.304E-01
DAV:   7    -0.882731740077E+03    0.91400E-03   -0.97084E-03  1560   0.159E-01    0.163E-01
DAV:   8    -0.882731823170E+03   -0.83093E-04   -0.41857E-03  1440   0.110E-01    0.908E-02
DAV:   9    -0.882731871566E+03   -0.48396E-04   -0.25624E-03  1560   0.688E-02    0.671E-02
DAV:  10    -0.882731886246E+03   -0.14680E-04   -0.81953E-04  1500   0.407E-02
   9 F= -.88273189E+03 E0= -.88273189E+03  d E =-.152175E+00
       N       E                     dE             d eps       ncg     rms          rms(c)
DAV:   1    -0.882582684881E+03   -0.88258E+03   -0.94619E+01  1080   0.137E+01    0.130E+00
DAV:   2    -0.882853336627E+03   -0.27065E+00   -0.30531E+00  1380   0.282E+00    0.984E-01
DAV:   3    -0.882838007963E+03    0.15329E-01   -0.15899E-01  1500   0.663E-01    0.594E-01
DAV:   4    -0.882833195736E+03    0.48122E-02   -0.85534E-02  1500   0.421E-01    0.476E-01
DAV:   5    -0.882827874568E+03    0.53212E-02   -0.27956E-02  1500   0.306E-01    0.198E-01
DAV:   6    -0.882828458128E+03   -0.58356E-03   -0.19293E-02  1500   0.208E-01    0.199E-01
DAV:   7    -0.882827966361E+03    0.49177E-03   -0.50987E-03  1560   0.111E-01    0.919E-02
DAV:   8    -0.882827987309E+03   -0.20948E-04   -0.23160E-03  1440   0.737E-02    0.461E-02
DAV:   9    -0.882828054248E+03   -0.66939E-04   -0.66958E-04  1440   0.398E-02
  10 F= -.88282805E+03 E0= -.88282805E+03  d E =-.961680E-01
       N       E                     dE             d eps       ncg     rms          rms(c)
DAV:   1    -0.882317677450E+03   -0.88232E+03   -0.22310E+02  1080   0.212E+01    0.202E+00
DAV:   2    -0.882957184444E+03   -0.63951E+00   -0.73021E+00  1320   0.438E+00    0.171E+00
DAV:   3    -0.882913317510E+03    0.43867E-01   -0.44999E-01  1560   0.108E+00    0.972E-01
DAV:   4    -0.882899915686E+03    0.13402E-01   -0.19904E-01  1500   0.656E-01    0.727E-01
DAV:   5    -0.882886075459E+03    0.13840E-01   -0.58793E-02  1500   0.537E-01    0.331E-01
DAV:   6    -0.882889441084E+03   -0.33656E-02   -0.76955E-02  1440   0.376E-01    0.440E-01
DAV:   7    -0.882886933020E+03    0.25081E-02   -0.16275E-02  1500   0.192E-01    0.180E-01
DAV:   8    -0.882886886246E+03    0.46774E-04   -0.40617E-03  1440   0.103E-01    0.949E-02
DAV:   9    -0.882887057011E+03   -0.17077E-03   -0.25625E-03  1440   0.660E-02    0.890E-02
DAV:  10    -0.882886991148E+03    0.65863E-04   -0.63926E-04  1260   0.398E-02
  11 F= -.88288699E+03 E0= -.88288699E+03  d E =-.155105E+00
       N       E                     dE             d eps       ncg     rms          rms(c)
DAV:   1    -0.882813299542E+03   -0.88281E+03   -0.45838E+01  1080   0.976E+00    0.947E-01
DAV:   2    -0.882950667945E+03   -0.13737E+00   -0.16242E+00  1560   0.220E+00    0.606E-01
DAV:   3    -0.882951060233E+03   -0.39229E-03   -0.97443E-02  1560   0.523E-01    0.574E-01
DAV:   4    -0.882948448316E+03    0.26119E-02   -0.39657E-02  1620   0.254E-01    0.295E-01
DAV:   5    -0.882946033417E+03    0.24149E-02   -0.69348E-03  1680   0.301E-01    0.162E-01
DAV:   6    -0.882946531880E+03   -0.49846E-03   -0.13369E-02  1500   0.201E-01    0.141E-01
DAV:   7    -0.882946583889E+03   -0.52009E-04   -0.37555E-03  1500   0.105E-01    0.173E-01
DAV:   8    -0.882946346826E+03    0.23706E-03   -0.30726E-03  1320   0.858E-02    0.105E-01
DAV:   9    -0.882946363827E+03   -0.17001E-04   -0.19356E-03  1500   0.553E-02    0.671E-02
DAV:  10    -0.882946342390E+03    0.21437E-04   -0.12981E-03  1260   0.499E-02    0.431E-02
DAV:  11    -0.882946337027E+03    0.53628E-05   -0.25458E-04  1080   0.262E-02
  12 F= -.88294634E+03 E0= -.88294634E+03  d E =-.593459E-01
       N       E                     dE             d eps       ncg     rms          rms(c)
DAV:   1    -0.882209907371E+03   -0.88221E+03   -0.26379E+02  1080   0.234E+01    0.233E+00
DAV:   2    -0.883042274233E+03   -0.83237E+00   -0.98926E+00  1620   0.538E+00    0.171E+00
DAV:   3    -0.883025563938E+03    0.16710E-01   -0.62446E-01  1560   0.125E+00    0.137E+00
DAV:   4    -0.883009049139E+03    0.16515E-01   -0.25799E-01  1500   0.665E-01    0.765E-01
DAV:   5    -0.882994529552E+03    0.14520E-01   -0.55241E-02  1500   0.662E-01    0.393E-01
DAV:   6    -0.882996915565E+03   -0.23860E-02   -0.68342E-02  1500   0.410E-01    0.325E-01
DAV:   7    -0.882996309141E+03    0.60642E-03   -0.13456E-02  1500   0.202E-01    0.307E-01
DAV:   8    -0.882996114843E+03    0.19430E-03   -0.19270E-02  1440   0.185E-01    0.205E-01
DAV:   9    -0.882995965264E+03    0.14958E-03   -0.66961E-03  1560   0.107E-01    0.113E-01
DAV:  10    -0.882995889959E+03    0.75305E-04   -0.26943E-03  1380   0.709E-02    0.450E-02
DAV:  11    -0.882995915148E+03   -0.25189E-04   -0.56971E-04  1260   0.497E-02
  13 F= -.88299592E+03 E0= -.88299592E+03  d E =-.108924E+00
       N       E                     dE             d eps       ncg     rms          rms(c)
DAV:   1    -0.882941637696E+03   -0.88294E+03   -0.35421E+01  1080   0.835E+00    0.756E-01
DAV:   2    -0.883031678323E+03   -0.90041E-01   -0.10795E+00  1440   0.168E+00    0.539E-01
DAV:   3    -0.883029749384E+03    0.19289E-02   -0.71912E-02  1620   0.445E-01    0.395E-01
DAV:   4    -0.883027920617E+03    0.18288E-02   -0.25261E-02  1620   0.233E-01    0.285E-01
DAV:   5    -0.883025630225E+03    0.22904E-02   -0.81219E-03  1440   0.214E-01    0.186E-01
DAV:   6    -0.883025572193E+03    0.58032E-04   -0.11524E-02  1500   0.151E-01    0.122E-01
DAV:   7    -0.883025507401E+03    0.64791E-04   -0.23722E-03  1560   0.771E-02    0.469E-02
DAV:   8    -0.883025587764E+03   -0.80362E-04   -0.30588E-04  1080   0.293E-02
  14 F= -.88302559E+03 E0= -.88302559E+03  d E =-.296726E-01
       N       E                     dE             d eps       ncg     rms          rms(c)
DAV:   1    -0.883024658757E+03   -0.88302E+03   -0.31335E-01  1200   0.790E-01    0.693E-02
DAV:   2    -0.883025525055E+03   -0.86630E-03   -0.96310E-03  1440   0.160E-01    0.478E-02
DAV:   3    -0.883025527055E+03   -0.20005E-05   -0.48396E-04  1380   0.414E-02
  15 F= -.88302553E+03 E0= -.88302553E+03  d E =-.296119E-01
       N       E                     dE             d eps       ncg     rms          rms(c)
DAV:   1    -0.883025038141E+03   -0.88303E+03   -0.19301E-01  1260   0.630E-01    0.575E-02
DAV:   2    -0.883025471191E+03   -0.43305E-03   -0.54038E-03  1380   0.121E-01    0.385E-02
DAV:   3    -0.883025475480E+03   -0.42893E-05   -0.45373E-04  1320   0.369E-02
  16 F= -.88302548E+03 E0= -.88302548E+03  d E =-.295603E-01
       N       E                     dE             d eps       ncg     rms          rms(c)
DAV:   1    -0.883025487806E+03   -0.88303E+03   -0.26653E+00  1200   0.237E+00    0.218E-01
DAV:   2    -0.883032043515E+03   -0.65557E-02   -0.79047E-02  1380   0.513E-01    0.145E-01
DAV:   3    -0.883032229888E+03   -0.18637E-03   -0.94900E-03  1740   0.139E-01    0.133E-01
DAV:   4    -0.883032001738E+03    0.22815E-03   -0.17582E-03  1560   0.570E-02    0.740E-02
DAV:   5    -0.883031847038E+03    0.15470E-03   -0.45647E-04  1260   0.337E-02    0.424E-02
DAV:   6    -0.883031787247E+03    0.59791E-04   -0.35672E-04  1200   0.399E-02
  17 F= -.88303179E+03 E0= -.88303179E+03  d E =-.631177E-02
       N       E                     dE             d eps       ncg     rms          rms(c)
DAV:   1    -0.883032377075E+03   -0.88303E+03   -0.40654E-02  1320   0.296E-01    0.379E-02
DAV:   2    -0.883032475792E+03   -0.98718E-04   -0.14956E-03  1380   0.691E-02    0.275E-02
DAV:   3    -0.883032469060E+03    0.67327E-05   -0.23223E-04  1020   0.240E-02
  18 F= -.88303247E+03 E0= -.88303247E+03  d E =-.699358E-02
       N       E                     dE             d eps       ncg     rms          rms(c)
DAV:   1    -0.883036903237E+03   -0.88304E+03   -0.16497E-01  1200   0.625E-01    0.549E-02
DAV:   2    -0.883037349059E+03   -0.44582E-03   -0.54375E-03  1320   0.136E-01    0.376E-02
DAV:   3    -0.883037364765E+03   -0.15706E-04   -0.64602E-04  1560   0.389E-02
  19 F= -.88303736E+03 E0= -.88303736E+03  d E =-.118893E-01
       N       E                     dE             d eps       ncg     rms          rms(c)
DAV:   1    -0.883033849556E+03   -0.88303E+03   -0.64588E-02  1200   0.402E-01    0.442E-02
DAV:   2    -0.883034072843E+03   -0.22329E-03   -0.26148E-03  1380   0.889E-02    0.183E-02
DAV:   3    -0.883034069661E+03    0.31820E-05   -0.11130E-04   900   0.224E-02
  20 F= -.88303407E+03 E0= -.88303407E+03  d E =-.859418E-02
       N       E                     dE             d eps       ncg     rms          rms(c)
DAV:   1    -0.883029138151E+03   -0.88303E+03   -0.14866E+00  1080   0.178E+00    0.214E-01
DAV:   2    -0.883034602796E+03   -0.54646E-02   -0.75372E-02  1740   0.534E-01    0.146E-01
DAV:   3    -0.883035181333E+03   -0.57854E-03   -0.11752E-02  1500   0.141E-01    0.170E-01
DAV:   4    -0.883034836711E+03    0.34462E-03   -0.21883E-03  1500   0.620E-02    0.794E-02
DAV:   5    -0.883034747585E+03    0.89126E-04   -0.57822E-04  1320   0.352E-02
  21 F= -.88303475E+03 E0= -.88303475E+03  d E =-.677924E-03
       N       E                     dE             d eps       ncg     rms          rms(c)
DAV:   1    -0.883034635136E+03   -0.88303E+03   -0.34377E-01  1200   0.863E-01    0.106E-01
DAV:   2    -0.883036089594E+03   -0.14545E-02   -0.18950E-02  1740   0.253E-01    0.767E-02
DAV:   3    -0.883036141418E+03   -0.51824E-04   -0.22499E-03  1500   0.635E-02    0.677E-02
DAV:   4    -0.883036088240E+03    0.53178E-04   -0.37776E-04  1140   0.271E-02
  22 F= -.88303609E+03 E0= -.88303609E+03  d E =-.201858E-02
       N       E                     dE             d eps       ncg     rms          rms(c)
DAV:   1    -0.883035006278E+03   -0.88304E+03   -0.22376E-01  1200   0.702E-01    0.865E-02
DAV:   2    -0.883035931435E+03   -0.92516E-03   -0.12274E-02  1740   0.206E-01    0.462E-02
DAV:   3    -0.883036006352E+03   -0.74917E-04   -0.13763E-03  1500   0.495E-02    0.593E-02
DAV:   4    -0.883035963378E+03    0.42974E-04   -0.23334E-04  1080   0.209E-02
  23 F= -.88303596E+03 E0= -.88303596E+03  d E =-.189372E-02
       N       E                     dE             d eps       ncg     rms          rms(c)
DAV:   1    -0.883032965303E+03   -0.88303E+03   -0.48768E-01  1200   0.105E+00    0.958E-02
DAV:   2    -0.883034516931E+03   -0.15516E-02   -0.17623E-02  1560   0.227E-01    0.570E-02
DAV:   3    -0.883034514879E+03    0.20519E-05   -0.71503E-04  1320   0.424E-02
  24 F= -.88303451E+03 E0= -.88303451E+03  d E =0.144850E-02
       N       E                     dE             d eps       ncg     rms          rms(c)
DAV:   1    -0.883030588718E+03   -0.88303E+03   -0.97279E-01  1200   0.147E+00    0.138E-01
DAV:   2    -0.883033584826E+03   -0.29961E-02   -0.34359E-02  1620   0.320E-01    0.860E-02
DAV:   3    -0.883033498417E+03    0.86409E-04   -0.96519E-04  1440   0.573E-02
  25 F= -.88303350E+03 E0= -.88303350E+03  d E =0.246496E-02
       N       E                     dE             d eps       ncg     rms          rms(c)
DAV:   1    -0.883017460647E+03   -0.88302E+03   -0.38862E+00  1080   0.292E+00    0.265E-01
DAV:   2    -0.883028587208E+03   -0.11127E-01   -0.12734E-01  1620   0.618E-01    0.158E-01
DAV:   3    -0.883028278767E+03    0.30844E-03   -0.34912E-03  1560   0.110E-01    0.115E-01
DAV:   4    -0.883028269009E+03    0.97583E-05   -0.44727E-03  1440   0.927E-02    0.118E-01
DAV:   5    -0.883028049237E+03    0.21977E-03   -0.11454E-03  1380   0.699E-02    0.479E-02
DAV:   6    -0.883028044266E+03    0.49711E-05   -0.33515E-04  1080   0.311E-02
  26 F= -.88302804E+03 E0= -.88302804E+03  d E =0.791911E-02
       N       E                     dE             d eps       ncg     rms          rms(c)
DAV:   1    -0.883025848043E+03   -0.88303E+03   -0.13787E+00  1080   0.174E+00    0.152E-01
DAV:   2    -0.883029809603E+03   -0.39616E-02   -0.45103E-02  1560   0.371E-01    0.881E-02
DAV:   3    -0.883029751969E+03    0.57634E-04   -0.17624E-03  1500   0.715E-02    0.687E-02
DAV:   4    -0.883029715631E+03    0.36338E-04   -0.96434E-04  1260   0.415E-02
  27 F= -.88302972E+03 E0= -.88302972E+03  d E =0.624775E-02
       N       E                     dE             d eps       ncg     rms          rms(c)
DAV:   1    -0.883028297753E+03   -0.88303E+03   -0.57907E-01  1200   0.111E+00    0.105E-01
DAV:   2    -0.883029940579E+03   -0.16428E-02   -0.19895E-02  1380   0.250E-01    0.624E-02
DAV:   3    -0.883029999174E+03   -0.58595E-04   -0.16599E-03  1500   0.627E-02    0.614E-02
DAV:   4    -0.883029959696E+03    0.39478E-04   -0.35216E-04  1080   0.262E-02
  28 F= -.88302996E+03 E0= -.88302996E+03  d E =-.244065E-03
       N       E                     dE             d eps       ncg     rms          rms(c)
DAV:   1    -0.883028693582E+03   -0.88303E+03   -0.50615E-01  1200   0.104E+00    0.104E-01
DAV:   2    -0.883030198574E+03   -0.15050E-02   -0.18240E-02  1500   0.240E-01    0.696E-02
DAV:   3    -0.883030214745E+03   -0.16171E-04   -0.12800E-03  1500   0.525E-02    0.601E-02
DAV:   4    -0.883030175663E+03    0.39082E-04   -0.42692E-04  1200   0.270E-02
  29 F= -.88303018E+03 E0= -.88303018E+03  d E =-.460032E-03
       N       E                     dE             d eps       ncg     rms          rms(c)
DAV:   1    -0.883029770066E+03   -0.88303E+03   -0.46074E-01  1200   0.988E-01    0.900E-02
DAV:   2    -0.883030956336E+03   -0.11863E-02   -0.13532E-02  1440   0.203E-01    0.540E-02
DAV:   3    -0.883030909674E+03    0.46662E-04   -0.60903E-04  1380   0.445E-02
  30 F= -.88303091E+03 E0= -.88303091E+03  d E =-.734011E-03
       N       E                     dE             d eps       ncg     rms          rms(c)
DAV:   1    -0.883031027829E+03   -0.88303E+03   -0.29256E-01  1200   0.791E-01    0.728E-02
DAV:   2    -0.883031728729E+03   -0.70090E-03   -0.83324E-03  1380   0.161E-01    0.430E-02
DAV:   3    -0.883031692073E+03    0.36656E-04   -0.35987E-04  1260   0.373E-02
  31 F= -.88303169E+03 E0= -.88303169E+03  d E =-.151641E-02
       N       E                     dE             d eps       ncg     rms          rms(c)
DAV:   1    -0.883027751844E+03   -0.88303E+03   -0.47211E-01  1200   0.102E+00    0.105E-01
DAV:   2    -0.883029291936E+03   -0.15401E-02   -0.18824E-02  1620   0.255E-01    0.669E-02
DAV:   3    -0.883029376602E+03   -0.84666E-04   -0.20511E-03  1560   0.614E-02    0.727E-02
DAV:   4    -0.883029309153E+03    0.67450E-04   -0.51032E-04  1200   0.292E-02
  32 F= -.88302931E+03 E0= -.88302931E+03  d E =0.238292E-02
       N       E                     dE             d eps       ncg     rms          rms(c)
DAV:   1    -0.883028829325E+03   -0.88303E+03   -0.12438E-01  1200   0.520E-01    0.564E-02
DAV:   2    -0.883029197307E+03   -0.36798E-03   -0.46813E-03  1620   0.130E-01    0.407E-02
DAV:   3    -0.883029213050E+03   -0.15742E-04   -0.55991E-04  1200   0.319E-02
  33 F= -.88302921E+03 E0= -.88302921E+03  d E =0.247902E-02
       N       E                     dE             d eps       ncg     rms          rms(c)
DAV:   1    -0.883026956585E+03   -0.88303E+03   -0.34488E-01  1200   0.853E-01    0.945E-02
DAV:   2    -0.883028041846E+03   -0.10853E-02   -0.13139E-02  1560   0.202E-01    0.700E-02
DAV:   3    -0.883028016428E+03    0.25418E-04   -0.10303E-03  1380   0.490E-02    0.544E-02
DAV:   4    -0.883027988770E+03    0.27658E-04   -0.43756E-04  1260   0.272E-02
  34 F= -.88302799E+03 E0= -.88302799E+03  d E =0.122428E-02
       N       E                     dE             d eps       ncg     rms          rms(c)
DAV:   1    -0.883025644973E+03   -0.88303E+03   -0.11223E+00  1080   0.154E+00    0.167E-01
DAV:   2    -0.883029220909E+03   -0.35759E-02   -0.43777E-02  1560   0.373E-01    0.111E-01
DAV:   3    -0.883029174204E+03    0.46705E-04   -0.25415E-03  1500   0.828E-02    0.888E-02
DAV:   4    -0.883029128506E+03    0.45698E-04   -0.14114E-03  1260   0.463E-02    0.563E-02
DAV:   5    -0.883029064655E+03    0.63851E-04   -0.21631E-04  1020   0.368E-02
  35 F= -.88302906E+03 E0= -.88302906E+03  d E =0.148395E-03
       N       E                     dE             d eps       ncg     rms          rms(c)
DAV:   1    -0.883026751534E+03   -0.88303E+03   -0.53163E-01  1200   0.107E+00    0.977E-02
DAV:   2    -0.883028169596E+03   -0.14181E-02   -0.16165E-02  1380   0.221E-01    0.650E-02
DAV:   3    -0.883028113020E+03    0.56576E-04   -0.91608E-04  1500   0.522E-02
  36 F= -.88302811E+03 E0= -.88302811E+03  d E =0.951635E-03
       N       E                     dE             d eps       ncg     rms          rms(c)
DAV:   1    -0.883027468814E+03   -0.88303E+03   -0.59715E-03  1320   0.132E-01    0.287E-02
DAV:   2    -0.883027464077E+03    0.47368E-05   -0.27428E-04  1080   0.355E-02
  37 F= -.88302746E+03 E0= -.88302746E+03  d E =0.160058E-02
       N       E                     dE             d eps       ncg     rms          rms(c)
DAV:   1    -0.883027404197E+03   -0.88303E+03   -0.16394E-01  1080   0.598E-01    0.605E-02
DAV:   2    -0.883027882221E+03   -0.47802E-03   -0.59035E-03  1620   0.136E-01    0.421E-02
DAV:   3    -0.883027876306E+03    0.59146E-05   -0.38505E-04  1140   0.302E-02
  38 F= -.88302788E+03 E0= -.88302788E+03  d E =-.412229E-03
       N       E                     dE             d eps       ncg     rms          rms(c)
DAV:   1    -0.883028095730E+03   -0.88303E+03   -0.15924E-03  1320   0.594E-02    0.221E-02
DAV:   2    -0.883028093227E+03    0.25032E-05   -0.12351E-04   900   0.224E-02
  39 F= -.88302809E+03 E0= -.88302809E+03  d E =-.629149E-03
       N       E                     dE             d eps       ncg     rms          rms(c)
DAV:   1    -0.883027851952E+03   -0.88303E+03   -0.47226E-04  1140   0.331E-02    0.845E-03
DAV:   2    -0.883027851272E+03    0.67975E-06   -0.30039E-05   900   0.130E-02
  40 F= -.88302785E+03 E0= -.88302785E+03  d E =-.387195E-03
       N       E                     dE             d eps       ncg     rms          rms(c)
DAV:   1    -0.883028094038E+03   -0.88303E+03   -0.20528E-04   900   0.218E-02    0.573E-03
DAV:   2    -0.883028094072E+03   -0.34284E-07   -0.13315E-05   720   0.836E-03
  41 F= -.88302809E+03 E0= -.88302809E+03  d E =-.629995E-03
       N       E                     dE             d eps       ncg     rms          rms(c)
DAV:   1    -0.883028095501E+03   -0.88303E+03   -0.48321E-05   720   0.112E-02    0.271E-03
DAV:   2    -0.883028095548E+03   -0.46974E-07   -0.38349E-06   720   0.422E-03
  42 F= -.88302810E+03 E0= -.88302810E+03  d E =-.631471E-03
       N       E                     dE             d eps       ncg     rms          rms(c)
DAV:   1    -0.883026927063E+03   -0.88303E+03   -0.13556E-01  1080   0.543E-01    0.548E-02
DAV:   2    -0.883027337683E+03   -0.41062E-03   -0.52586E-03  1680   0.135E-01    0.329E-02
DAV:   3    -0.883027367062E+03   -0.29380E-04   -0.57694E-04  1260   0.334E-02
  43 F= -.88302737E+03 E0= -.88302737E+03  d E =0.728486E-03
       N       E                     dE             d eps       ncg     rms          rms(c)
DAV:   1    -0.883027626281E+03   -0.88303E+03   -0.63377E-03  1200   0.122E-01    0.279E-02
DAV:   2    -0.883027660263E+03   -0.33982E-04   -0.60838E-04  1380   0.391E-02
  44 F= -.88302766E+03 E0= -.88302766E+03  d E =0.435285E-03
       N       E                     dE             d eps       ncg     rms          rms(c)
DAV:   1    -0.883027576534E+03   -0.88303E+03   -0.17752E-03  1200   0.705E-02    0.129E-02
DAV:   2    -0.883027588094E+03   -0.11560E-04   -0.19057E-04  1020   0.215E-02
  45 F= -.88302759E+03 E0= -.88302759E+03  d E =0.507454E-03
       N       E                     dE             d eps       ncg     rms          rms(c)
DAV:   1    -0.883027578851E+03   -0.88303E+03   -0.56936E-04  1140   0.359E-02    0.113E-02
DAV:   2    -0.883027583011E+03   -0.41602E-05   -0.94976E-05   780   0.148E-02
  46 F= -.88302758E+03 E0= -.88302758E+03  d E =0.512537E-03
