
 *******************************************************************************
 *                                                                             *
 *  -------------------------------------                                      *
 *   Amsterdam Density Functional  (ADF)         2007.01   August 20, 2007     *
 *  -------------------------------------                                      *
 *                                               Build 200708291746            *
 *                                                                             *
 *                                                                             *
 *                            =====================                            *
 *                            |                   |                            *
 *                            |     D I R A C     |                            *
 *                            |                   |                            *
 *                            =====================                            *
 *                                                                             *
 *                                                                             *
 *   Online information and documentation:  http://www.scm.com                 *
 *   E-mail:  support@scm.com   info@scm.com                                   *
 *                                                                             *
 *   Scientific publications using ADF results must be properly referenced     *
 *   See the User Manuals (or the web site) for recommended citations          *
 *   The terms and conditions of the End User License Agreement apply to       *
 *   the use of ADF, http://www.scm.com/Sales/LicAgreement.html                *
 *                                                                             *
 *****************************  pentium64_linux  *******************************
 
 DIRAC 2007.01  RunTime: Mar06-2009 10:33:57
1
 CARBON ATOM 1s CORE RELATIVISTIC                            
 N J RN H ZN XION ANUC 
 1000    4100.00000000 54.23252343  6.00000000  0.00000000   12.000000
  PH   PHI     EPS        DEL        DELRVR
  0.30  0.30     2500.00  0.00001000  0.00001000
 IDIRC  NC1  NDEBU NPRIN  IPUN IRCOR IWCOR
   1   300     0     0     0     0     1
   XALPHA      XLATTER      RNUC
  0.70000000  0.00000000  0.00000000
   XN   XL   XJ      XE          XZ      XDELL
  1.0  0.0  0.5      -5.000       2.000     0.00000
  2.0  0.0  0.5      -1.000       2.000     0.00000
  2.0  1.0  0.5      -1.000       2.000     0.00000
  2.0  1.0  1.5      -1.000       0.000     0.00000
 ICORP=  0  NPCL=  0  DEMP=0.00  PEPS=0.000000
 R(1)=  0.1000000E-05 D=  0.1018610E+01 RNUC=  0.0000000E+00
 converged at cycle   26  DENSITY AVERAGING    0.2400
  MAXIMUM ERROR IN R.V(R) IS   0.53760002E-05
 Q,EY,EV,EZ,ESUM,ETOT,RHO  0.600000E+01 -0.610128E+01 -0.585189E+02 -0.876464E+02 -0.211985E+02 -0.372876E+02  0.162637E-08


 DIRAC CALCULATION
1                    CARBON ATOM 1s CORE RELATIVISTIC


 EXCHANGE COEFFICIENT=  0.7000000           TAIL CORRECTION=  0.           NUCLEAR RADIUS=  0.000E+00
0                       ORBITAL    N    L    J     ELECTRONS     EIGENVALUE                DELTA OF EIGENV.

                          1S1/2  1.0  0.0  0.5     2.000       -0.9959611E+01                 0.1312909E-04
                          2S1/2  2.0  0.0  0.5     2.000       -0.4708544E+00                 0.9462392E-06
                          2P1/2  2.0  1.0  0.5     2.000       -0.1687898E+00                 0.7283254E-06
                          2P3/2  2.0  1.0  1.5     0.000       -0.1684648E+00                 0.7285247E-06


                                        NUCLEAR CHARGE=    6.000000
                            INTEGRAL OF CHARGE DENSITY=    6.000000
                           SUM OF THE ORBITAL ENERGIES=    -21.1985
                                          TOTAL ENERGY=    -37.2876
                                        KINETIC ENERGY=     37.3204
                             NUCLEAR ATTRACTION ENERGY=    -87.6464
                             ELECTRON REPULSION ENERGY=     17.6144
                                       EXCHANGE ENERGY=     -4.5760

 *******************************************************************************

                             D I R A C   E X I T
 NORMAL TERMINATION



 =================
 Timing Statistics
 =================
  
 Total Used :                     CPU=        0.03      System=        0.04     Elapsed=        0.07

 Calls  Section                     ( Mean, Percentage )
 ---------------------------------------------------------------------------------------------------
     2  ><      ................      0.00    0.00             0.00    0.00             0.00    0.02
     1  EXIT PROCEDURE .........      0.03  100.00             0.04  100.00             0.07   99.98


 Currently Open Files (EXIT00)
 ====================

 Unit    Access Format  Status   Type       Ident (file)
 -------------------------------------------------------
   3      SEQ    FORM   TRANSP  NORMAL      LOGFILE
                                          ( logfile )


 Buffered I/O statistics
 =======================
 Memory available:                     67108864
 Number of records fitting in memory:     16131
 Input : 100.0% of                            0  *4k bytes
 Output: 100.0% of                            0  *4k bytes
 Records from serial files evicted:           0
                    others evicted:           0
 Hash table lookups:          0 with          0 conflicts (100.00%)

 ***************************************************************************************************
 (LOGFILE)
 <Mar06-2009> <10:33:57>  DIRAC 2007.01  RunTime: Mar06-2009 10:33:57
 <Mar06-2009> <10:33:57>  NORMAL TERMINATION
 <Mar06-2009> <10:33:57>  END

 *******************************************************************************
 *                                                                             *
 *  -------------------------------------                                      *
 *   Amsterdam Density Functional  (ADF)         2007.01   August 20, 2007     *
 *  -------------------------------------                                      *
 *                                               Build 200708291746            *
 *                                                                             *
 *                                                                             *
 *                            =====================                            *
 *                            |                   |                            *
 *                            |     D I R A C     |                            *
 *                            |                   |                            *
 *                            =====================                            *
 *                                                                             *
 *                                                                             *
 *   Online information and documentation:  http://www.scm.com                 *
 *   E-mail:  support@scm.com   info@scm.com                                   *
 *                                                                             *
 *   Scientific publications using ADF results must be properly referenced     *
 *   See the User Manuals (or the web site) for recommended citations          *
 *   The terms and conditions of the End User License Agreement apply to       *
 *   the use of ADF, http://www.scm.com/Sales/LicAgreement.html                *
 *                                                                             *
 *****************************  pentium64_linux  *******************************
 
 DIRAC 2007.01  RunTime: Mar06-2009 10:33:57
1
 NITROGEN ATOM 1s CORE RELATIVISTIC                          
 N J RN H ZN XION ANUC 
 1000    4100.00000000 54.23252343  7.00000000  0.00000000   14.008000
  PH   PHI     EPS        DEL        DELRVR
  0.30  0.30     2500.00  0.00001000  0.00001000
 IDIRC  NC1  NDEBU NPRIN  IPUN IRCOR IWCOR
   1   300     0     0     0     0     1
   XALPHA      XLATTER      RNUC
  0.70000000  0.00000000  0.00000000
   XN   XL   XJ      XE          XZ      XDELL
  1.0  0.0  0.5      -5.000       2.000     0.00000
  2.0  0.0  0.5      -1.000       2.000     0.00000
  2.0  1.0  0.5      -1.000       2.000     0.00000
  2.0  1.0  1.5      -1.000       1.000     0.00000
 ICORP=  0  NPCL=  0  DEMP=0.00  PEPS=0.000000
 R(1)=  0.1000000E-05 D=  0.1018610E+01 RNUC=  0.0000000E+00
 converged at cycle   26  DENSITY AVERAGING    0.3000
  MAXIMUM ERROR IN R.V(R) IS   0.78088128E-05
 Q,EY,EV,EZ,ESUM,ETOT,RHO  0.700000E+01 -0.796422E+01 -0.840162E+02 -0.127663E+03 -0.300691E+02 -0.538837E+02  0.265237E-08


 DIRAC CALCULATION
1                    NITROGEN ATOM 1s CORE RELATIVISTIC


 EXCHANGE COEFFICIENT=  0.7000000           TAIL CORRECTION=  0.           NUCLEAR RADIUS=  0.000E+00
0                       ORBITAL    N    L    J     ELECTRONS     EIGENVALUE                DELTA OF EIGENV.

                          1S1/2  1.0  0.0  0.5     2.000       -0.1403719E+02                 0.1378582E-04
                          2S1/2  2.0  0.0  0.5     2.000       -0.6456845E+00                 0.3576205E-05
                          2P1/2  2.0  1.0  0.5     2.000       -0.2347045E+00                 0.3773672E-05
                          2P3/2  2.0  1.0  1.5     1.000       -0.2339931E+00                 0.3768641E-05


                                        NUCLEAR CHARGE=    7.000000
                            INTEGRAL OF CHARGE DENSITY=    7.000000
                           SUM OF THE ORBITAL ENERGIES=    -30.0691
                                          TOTAL ENERGY=    -53.8837
                                        KINETIC ENERGY=     53.9470
                             NUCLEAR ATTRACTION ENERGY=   -127.6633
                             ELECTRON REPULSION ENERGY=     25.8057
                                       EXCHANGE ENERGY=     -5.9732

 *******************************************************************************

                             D I R A C   E X I T
 NORMAL TERMINATION



 =================
 Timing Statistics
 =================
  
 Total Used :                     CPU=        0.03      System=        0.04     Elapsed=        0.09

 Calls  Section                     ( Mean, Percentage )
 ---------------------------------------------------------------------------------------------------
     2  ><      ................      0.00    0.00             0.00    0.00             0.00    0.01
     1  EXIT PROCEDURE .........      0.03  100.00             0.04  100.00             0.09   99.99


 Currently Open Files (EXIT00)
 ====================

 Unit    Access Format  Status   Type       Ident (file)
 -------------------------------------------------------
   3      SEQ    FORM   TRANSP  NORMAL      LOGFILE
                                          ( logfile )


 Buffered I/O statistics
 =======================
 Memory available:                     67108864
 Number of records fitting in memory:     16131
 Input : 100.0% of                            0  *4k bytes
 Output: 100.0% of                            0  *4k bytes
 Records from serial files evicted:           0
                    others evicted:           0
 Hash table lookups:          0 with          0 conflicts (100.00%)

 ***************************************************************************************************
 (LOGFILE)
 <Mar06-2009> <10:33:57>  DIRAC 2007.01  RunTime: Mar06-2009 10:33:57
 <Mar06-2009> <10:33:57>  NORMAL TERMINATION
 <Mar06-2009> <10:33:57>  END
 <Mar06-2009> <10:33:57>  DIRAC 2007.01  RunTime: Mar06-2009 10:33:57
 <Mar06-2009> <10:33:57>  NORMAL TERMINATION
 <Mar06-2009> <10:33:57>  END

 *******************************************************************************
 *                                                                             *
 *  -------------------------------------                                      *
 *   Amsterdam Density Functional  (ADF)         2007.01   August 20, 2007     *
 *  -------------------------------------                                      *
 *                                               Build 200708291746            *
 *                                                                             *
 *                                                                             *
 *                            =====================                            *
 *                            |                   |                            *
 *                            |     D I R A C     |                            *
 *                            |                   |                            *
 *                            =====================                            *
 *                                                                             *
 *                                                                             *
 *   Online information and documentation:  http://www.scm.com                 *
 *   E-mail:  support@scm.com   info@scm.com                                   *
 *                                                                             *
 *   Scientific publications using ADF results must be properly referenced     *
 *   See the User Manuals (or the web site) for recommended citations          *
 *   The terms and conditions of the End User License Agreement apply to       *
 *   the use of ADF, http://www.scm.com/Sales/LicAgreement.html                *
 *                                                                             *
 *****************************  pentium64_linux  *******************************
 
 DIRAC 2007.01  RunTime: Mar06-2009 10:33:57
1
 SCANDIUM ATOM 2p CORE RELATIVISTIC                          
 N J RN H ZN XION ANUC 
 1000   10100.00000000 54.23252343 21.00000000  0.00000000   44.956000
  PH   PHI     EPS        DEL        DELRVR
  0.30  0.30     2500.00  0.00001000  0.00001000
 IDIRC  NC1  NDEBU NPRIN  IPUN IRCOR IWCOR
   1   300     0     0     0     0     4
   XALPHA      XLATTER      RNUC
  0.70000000  0.00000000  0.00000000
   XN   XL   XJ      XE          XZ      XDELL
  1.0  0.0  0.5    -750.000       2.000     0.00000
  2.0  0.0  0.5    -200.000       2.000     0.00000
  2.0  1.0  0.5    -175.000       2.000     0.00000
  2.0  1.0  1.5    -175.000       4.000     0.00000
  3.0  0.0  0.5     -75.000       2.000     0.00000
  3.0  1.0  0.5     -50.000       2.000     0.00000
  3.0  1.0  1.5     -50.000       4.000     0.00000
  3.0  2.0  1.5      -0.500       1.000     0.00000
  3.0  2.0  2.5      -0.500       0.000     0.00000
  4.0  0.0  0.5      -0.250       2.000     0.00000
 ICORP=  0  NPCL=  0  DEMP=0.00  PEPS=0.000000
 R(1)=  0.1000000E-05 D=  0.1018610E+01 RNUC=  0.0000000E+00
 converged at cycle   45  DENSITY AVERAGING    0.1536
  MAXIMUM ERROR IN R.V(R) IS   0.72222658E-05
 Q,EY,EV,EZ,ESUM,ETOT,RHO  0.210000E+02 -0.496537E+02 -0.122456E+04 -0.181514E+04 -0.454723E+03 -0.762425E+03  0.100539E-06


 DIRAC CALCULATION
1                    SCANDIUM ATOM 2p CORE RELATIVISTIC


 EXCHANGE COEFFICIENT=  0.7000000           TAIL CORRECTION=  0.           NUCLEAR RADIUS=  0.000E+00
0                       ORBITAL    N    L    J     ELECTRONS     EIGENVALUE                DELTA OF EIGENV.

                          1S1/2  1.0  0.0  0.5     2.000       -0.1613445E+03                 0.3221976E-04
                          2S1/2  2.0  0.0  0.5     2.000       -0.1739572E+02                 0.1950105E-04
                          2P1/2  2.0  1.0  0.5     2.000       -0.1439093E+02                 0.2118944E-04
                          2P3/2  2.0  1.0  1.5     4.000       -0.1422008E+02                 0.2108653E-04
                          3S1/2  3.0  0.0  0.5     2.000       -0.1985761E+01                 0.7411406E-05
                          3P1/2  3.0  1.0  0.5     2.000       -0.1220343E+01                 0.6922421E-05
                          3P3/2  3.0  1.0  1.5     4.000       -0.1201293E+01                 0.6860764E-05
                          3D3/2  3.0  2.0  1.5     1.000       -0.9814002E-01                 0.4271925E-05
                          3D5/2  3.0  2.0  2.5     0.000       -0.9701059E-01                 0.4251488E-05
                          4S1/2  4.0  0.0  0.5     2.000       -0.1322763E+00                 0.9096973E-06


                                        NUCLEAR CHARGE=   21.000000
                            INTEGRAL OF CHARGE DENSITY=   21.000000
                           SUM OF THE ORBITAL ENERGIES=   -454.7227
                                          TOTAL ENERGY=   -762.4252
                                        KINETIC ENERGY=    769.8374
                             NUCLEAR ATTRACTION ENERGY=  -1815.1382
                             ELECTRON REPULSION ENERGY=    320.1160
                                       EXCHANGE ENERGY=    -37.2403

 *******************************************************************************

                             D I R A C   E X I T
 NORMAL TERMINATION



 =================
 Timing Statistics
 =================
  
 Total Used :                     CPU=        0.09      System=        0.04     Elapsed=        0.13

 Calls  Section                     ( Mean, Percentage )
 ---------------------------------------------------------------------------------------------------
     2  ><      ................      0.00    0.00             0.00    0.00             0.00    0.01
     1  EXIT PROCEDURE .........      0.09  100.00             0.04  100.00             0.13   99.99


 Currently Open Files (EXIT00)
 ====================

 Unit    Access Format  Status   Type       Ident (file)
 -------------------------------------------------------
   3      SEQ    FORM   TRANSP  NORMAL      LOGFILE
                                          ( logfile )


 Buffered I/O statistics
 =======================
 Memory available:                     67108864
 Number of records fitting in memory:     16131
 Input : 100.0% of                            0  *4k bytes
 Output: 100.0% of                            0  *4k bytes
 Records from serial files evicted:           0
                    others evicted:           0
 Hash table lookups:          0 with          0 conflicts (100.00%)

 ***************************************************************************************************
 (LOGFILE)
 <Mar06-2009> <10:33:57>  DIRAC 2007.01  RunTime: Mar06-2009 10:33:57
 <Mar06-2009> <10:33:57>  NORMAL TERMINATION
 <Mar06-2009> <10:33:57>  END
 <Mar06-2009> <10:33:57>  DIRAC 2007.01  RunTime: Mar06-2009 10:33:57
 <Mar06-2009> <10:33:57>  NORMAL TERMINATION
 <Mar06-2009> <10:33:57>  END
 <Mar06-2009> <10:33:57>  DIRAC 2007.01  RunTime: Mar06-2009 10:33:57
 <Mar06-2009> <10:33:57>  NORMAL TERMINATION
 <Mar06-2009> <10:33:57>  END


(INPUT FILE)

create  C  /usr/local/adf2007.01/atomicdata/ZORA/TZP/C.1s
xc
GGA gradients becke perdew
end
relativistic scalar zora
corepotentials t12rel   <++
C    1
end
end input

 *******************************************************************************
 *                                                                             *
 *  -------------------------------------                                      *
 *   Amsterdam Density Functional  (ADF)         2007.01   August 20, 2007     *
 *  -------------------------------------                                      *
 *                                               Build 200708291746            *
 *                                                                             *
 *                                                                             *
 *                              =================                              *
 *                              |               |                              *
 *                              |     A D F     |                              *
 *                              |               |                              *
 *                              =================                              *
 *                                                                             *
 *                                                                             *
 *   Online information and documentation:  http://www.scm.com                 *
 *   E-mail:  support@scm.com   info@scm.com                                   *
 *                                                                             *
 *   Scientific publications using ADF results must be properly referenced     *
 *   See the User Manuals (or the web site) for recommended citations          *
 *   The terms and conditions of the End User License Agreement apply to       *
 *   the use of ADF, http://www.scm.com/Sales/LicAgreement.html                *
 *                                                                             *
 *****************************  pentium64_linux  *******************************
 
 ADF 2007.01  RunTime: Mar06-2009 10:33:58
 Carbon (TZP, 1s frozen)



 ===========================
 A T T A C H E D   F I L E S
 ===========================
  
 CREATE - Data File:    /usr/local/adf2007.01/atomicdata/ZORA/TZP/C.1s
                        Carbon (TZP, 1s frozen)
 Core Potentials:
         file : t12rel



 ===============================
 M O D E L   P A R A M E T E R S
 ===============================
  
 DENSITY FUNCTIONAL POTENTIAL (scf)
    LDA:                               VWN                                      
    Gradient Corrections:              Becke88 Perdew86                        == Not Default ==

 SPIN  (restricted / unrestr.)
    Molecule:                          Restricted                               

 OTHER ASPECTS
    Relativistic Corrections:          scalar (ZORA,SAPA)                       *** SPECIAL ***
    Core Treatment:                    Frozen Orbital(s)                        

    Electric Field:                    ---                                      

    Hyperfine or Zeeman Interaction:   ---                                      



 =====================================
 S Y M M E T R Y ,   E L E C T R O N S
 =====================================
  
 Symmetry: ATOM

 Irreducible Representations, including subspecies
 -------------------------------------------------
 S
 P:x  P:y  P:z
 D:z2  D:x2-y2  D:xy  D:xz  D:yz
 F:z3  F:z  F:xyz  F:z2x  F:z2y  F:x  F:y


 Configuration of Valence Electrons
 ==================================

          Occupation Numbers
          -------------------------------------------------
 S        2
 P        2
 D        0
 F        0
          -------------------------------------------------

 Total:   4

 Net Charge: 0 (Nuclei minus Electrons)

 Preset values for MO occupations will be applied through SCF cycle no. 1000000
 Thereafter, the program will assign electrons to MOs that are spatially
 similar to the occupied MOs in a "reference" cycle ("KeepOrbitals").
 The reference cycle is always the PREVIOUS cycle: it will evolve with
 the SCF procedure.



 ================================
 (Slater-type)  F U N C T I O N S  ***  (Basis and Fit)  ***
 ================================
  

 Atom Type    1  (C)
 ==============

 Valence Basis Sets:   8
 -----------------------
   1 S    5.400000
   2 S    1.280000
   2 S    2.100000
   2 S    4.600000
   2 P    0.820000
   2 P    1.480000
   2 P    2.940000
   3 D    2.200000

 Frozen Core Shells
 ------------------
    S:  1

 Charge Fitting Sets (for the computation of the Coulomb Potential):  20
 -----------------------------------------------------------------------
   1 S   10.800000
   2 S   11.590000
   2 S    7.590000
   2 S    4.970000
   3 S    4.790000
   3 S    3.350000
   3 S    2.340000
   3 S    1.640000
   2 P    8.340000
   2 P    5.140000
   3 P    4.670000
   3 P    3.100000
   3 P    2.060000
   3 D    5.880000
   3 D    3.840000
   3 D    2.510000
   3 D    1.640000
   4 F    5.400000
   4 F    3.550000
   5 G    4.500000


 BAS: List of all Elementary Cartesian Basis Functions
 =====================================================

 The numbering in the list below (to the right of the function characteristics) is referred
 to in print-outs of MO eigenvectors and Mulliken populations in the BAS representation
 (as contrasted to the SFO representation).

 Notes:
 1. The functions are characterized by a polynomial prefactor (powers of x,y,z and r) and
    an exponential decay factor alpha.
 2. Since the basis sets are specific for an atom TYPE, the individual functions occur on
    all atoms of that type.
 3. The word 'Core' in the left margin signals that it is a Core Function (CF) : not a
    degree of freedom in the valence set, but only used to ensure orthogonalization of
    the other valence basis functions on the frozen Core Orbitals.


 (power of) X  Y  Z  R     Alpha  on Atom
            ==========     =====     ==========

 C                                    1
                                  ---------------------------------------------------------------------------
    Core    0  0  0  0     5.400      1
            0  0  0  1     1.280      2
            0  0  0  1     2.100      3
            0  0  0  1     4.600      4
            1  0  0  0     0.820      5
            0  1  0  0     0.820      6
            0  0  1  0     0.820      7
            1  0  0  0     1.480      8
            0  1  0  0     1.480      9
            0  0  1  0     1.480     10
            1  0  0  0     2.940     11
            0  1  0  0     2.940     12
            0  0  1  0     2.940     13
            2  0  0  0     2.200     14
            1  1  0  0     2.200     15
            1  0  1  0     2.200     16
            0  2  0  0     2.200     17
            0  1  1  0     2.200     18
            0  0  2  0     2.200     19


 BAS: List of all Elementary Cartesian Basis Functions
 =====================================================

 The numbering in the list below (to the right of the function characteristics) is referred
 to in print-outs of MO eigenvectors and Mulliken populations in the BAS representation
 (as contrasted to the SFO representation).

 Notes:
 1. The functions are characterized by a polynomial prefactor (powers of x,y,z and r) and
    an exponential decay factor alpha.
 2. Since the basis sets are specific for an atom TYPE, the individual functions occur on
    all atoms of that type.
 3. The word 'Core' in the left margin signals that it is a Core Function (CF) : not a
    degree of freedom in the valence set, but only used to ensure orthogonalization of
    the other valence basis functions on the frozen Core Orbitals.


 (power of) X  Y  Z  R     Alpha  on Atom
            ==========     =====     ==========

 C                                    1
                                  ---------------------------------------------------------------------------
    Core    0  0  0  0     5.400      1
            0  0  0  1     1.280      2
            0  0  0  1     2.100      3
            0  0  0  1     4.600      4
            1  0  0  0     0.820      5
            0  1  0  0     0.820      6
            0  0  1  0     0.820      7
            1  0  0  0     1.480      8
            0  1  0  0     1.480      9
            0  0  1  0     1.480     10
            1  0  0  0     2.940     11
            0  1  0  0     2.940     12
            0  0  1  0     2.940     13
            2  0  0  0     2.200     14
            1  1  0  0     2.200     15
            1  0  1  0     2.200     16
            0  2  0  0     2.200     17
            0  1  1  0     2.200     18
            0  0  2  0     2.200     19
1
 ***************************************************************************************************



                                              ***********************
                                              *  T E C H N I C A L  *
                                              ***********************
  



 =============================================================
 P A R A L L E L I Z A T I O N  and  V E C T O R I Z A T I O N
 =============================================================
  
 Nr of parallel processes:                                1
 Internal max. (compile-time) nr of processes:          128
 Maximum vector length in NumInt loops:                 128



 ===============
 I O  vs.  C P U  ***  (store numerical data on disk or recalculate)  ***
 ===============
  
 Basis functions:   recalculate when needed
 Fit functions:     recalculate when needed

 IO buffersize (Mb):                                     64.000000



 =====================
 S C F   U P D A T E S
 =====================
  
 Max. nr. of cycles:                               100
 Convergence criterion:                              0.0000000100
   secondary criterion:                              0.0000000100

 Mix parameter (when DIIS does not apply):           0.2000000000
 Special mix parameter for the first cycle:          1.0000000000


 DIIS (Direct Inversion in Iteration Space)
    Replace damping when SCF Error is below:         0.5000000000
    Apply anyway after SCF cycle:
                                                     5
    (Max.) nr. of expansion vectors:                10

    Upperbound on expansion coefficients:            5.0000000000
    (when exceeded, IterationSpace is re-built)
    2nd Upperbound on coefficients:                 25.0000000000
    (when exceeded, simple damping will be used)
 Automatic ElectronSmearing (in case of problematic SCF convergence) disabled



 =================
 P R E C I S I O N  ***  (General: NumInt, NeglectFunctionTails, ...)  ***
 =================
  

 NumInt:           Target precision:                10.0000000000
 -------           Initial precision:               10.0000000000
                   Min. precision (optimization):   10.0000000000

 Neglect Functions:          Basis functions:        0.1000000000E-11
 ------------------          Fit functions:          0.1000000000E-11



 ===========================
 L I N E A R   S C A L I N G
 ===========================
  

 Cut-off radii density fit:                        0.1000000000E-13
 Overlap cut-off criterion AO matrix elements:     0.1000000000E-11
 Cut-offs for Coulomb potential and fitted density:0.1000000000E-13
 Cut-off criterion for Coulomb multipole terms:    0.1000000000E-13
1
 ***************************************************************************************************



                                            ***************************
                                            *  C O M P U T A T I O N  *
                                            ***************************
  

 Number of elements of the density matrix on this node (used, total):       190       190



 ====================================================
 Numerical Integration : Voronoi Polyhedra (Te Velde)  ***  (parameters, tests)  ***
 ====================================================
  
 General Accuracy Parameter :                         10.00

 Symmetry used in the points section:  ATOM  


 Summary of the Symmetry Unique Points:
 --------------------------------------
    Nr. of used Symmetry Operators                     1

    Points in the Atomic Spheres                      48
    Points in the Atomic Polyhedra                     0
    Points in the Outer Region                         0
    ----------------------------------------------------
    Total                                             48

    Sum of Weights                                 58501.056183

 Total nr. of points:         48
 Nr. of blocks:                1
 Block length:                48
 Nr. of dummy points:          0


 Test of Precision of the Numerical Integration Grid
 ===================================================

 Integral of the Total Core Density:                   1.99999980245945
 Relative Error:                                      -9.877E-08



 =====
 S C F
 =====
  

 CYCLE    1
 orbitals (Q,E):
 ---------------
 S :1...3            ( 2.00    -0.5142)  ( 0.00     0.4261)  ( 0.00     9.9211)
 P :1...3            ( 2.00    -0.2021)  ( 0.00     0.1712)  ( 0.00     2.0182)
 D :1...1            ( 0.00     1.2287)

 CYCLE    2
 d-Pmat  mean:  0.25E-02
 imax=      3: -0.12E-01
 orbitals (Q,E):
 ---------------
 S :1...2            ( 2.00    -0.5089)  ( 0.00     0.4300)
 P :1...2            ( 2.00    -0.1972)  ( 0.00     0.1738)
 D :1...1            ( 0.00     1.2337)

 CYCLE    3
 d-Pmat  mean:  0.12E-02
 imax=      3:  0.57E-02
 orbitals (Q,E):
 ---------------
 S :1...2            ( 2.00    -0.5112)  ( 0.00     0.4284)
 P :1...2            ( 2.00    -0.1993)  ( 0.00     0.1727)
 D :1...1            ( 0.00     1.2316)

 CYCLE    4
 d-Pmat  mean:  0.10E-04
 imax=      3: -0.50E-04
 orbitals (Q,E):
 ---------------
 S :1...2            ( 2.00    -0.5112)  ( 0.00     0.4284)
 P :1...2            ( 2.00    -0.1992)  ( 0.00     0.1727)
 D :1...1            ( 0.00     1.2316)

 CYCLE    5
 d-Pmat  mean:  0.16E-06
 imax=      3:  0.84E-06
 orbitals (Q,E):
 ---------------
 S :1...2            ( 2.00    -0.5112)  ( 0.00     0.4284)
 P :1...2            ( 2.00    -0.1992)  ( 0.00     0.1727)
 D :1...1            ( 0.00     1.2316)

 CYCLE    6
 d-Pmat  mean:  0.44E-08
 imax=      3:  0.22E-07
 orbitals (Q,E):
 ---------------
 S :1...2            ( 2.00    -0.5112)  ( 0.00     0.4284)
 P :1...2            ( 2.00    -0.1992)  ( 0.00     0.1727)
 D :1...1            ( 0.00     1.2316)

 CYCLE    7
 d-Pmat  mean:  0.49E-10
 imax=      3: -0.24E-09
 orbitals (Q,E):
 ---------------
 S :1...2            ( 2.00    -0.5112)  ( 0.00     0.4284)
 P :1...2            ( 2.00    -0.1992)  ( 0.00     0.1727)
 D :1...1            ( 0.00     1.2316)

 SCF CONVERGED

 CYCLE    8
1
 ***************************************************************************************************



                                                *******************
                                                *  R E S U L T S  *
                                                *******************
  
 *** Setting up for NEW gradients in focky
 *** Using FIT density in focky

 Scaled ZORA Orbital Energies, per Irrep and Spin:
 =================================================
                        Occup              E (au)              E (eV)       Diff (eV) with prev. cycle
                        -----      --------------------        ------       --------------------------
 S
               1        2.000     -0.51118105124052E+00       -13.910              -2.03E-11
               2        0.000      0.42836680884231E+00        11.656
               3        0.000      0.99274831726523E+01       270.141
 P
               1        2.000     -0.19924328097196E+00        -5.422              -1.92E-11
               2        0.000      0.17271611068858E+00         4.700
               3        0.000      0.20224861614786E+01        55.035
 D
               1        0.000      0.12315843718498E+01        33.513


 Partially Occupied:
               1 P                -0.19924328097196E+00
  
 HOMO :        1 S                -0.51118105124052E+00
 LUMO :        2 P                 0.17271611068858E+00
  


 Orbital Energies, all Irreps
 ========================================

 Irrep        no.  (spin)   Occup              E (au)                E (eV)
 ---------------------------------------------------------------------------
 S             1             2.00       -0.51118105124052E+00       -13.9099
 P             1             2.00       -0.19924328097196E+00        -5.4217
 P             2             0.00        0.17271611068858E+00         4.6998
 S             2             0.00        0.42836680884231E+00        11.6565
 D             1             0.00        0.12315843718498E+01        33.5131
 P             3             0.00        0.20224861614786E+01        55.0346
 S             3             0.00        0.99274831726523E+01       270.1406


 Scaled ZORA Orbital Energies of the Core Orbitals:
 ==================================================

 (Note that the atoms are grouped by atomtype, see the labels, and may hence NOT be in input order)

 AtomType  Orbital  Atom                   E (au)                        E (eV)
 --------  -------  ----           --------------------        ----------------
 C           1S        1          -0.10075026584523E+02                -274.155



 =======================================
 M U L L I K E N   P O P U L A T I O N S
 =======================================
  
 The survey below gives for each atom:
 a) the total charge (Z minus electrons)
 b) the net spin polarization (nr of electrons spin-A minus spin-B)
 c) for each spin the atomic electron valence density (integrated) per L-value.

 Atom              Charge    Spin density          S         P         D         F
 ----              ------    ------------       ------    ------    ------    ------
 1 C               0.0000                       2.0000    2.0000    0.0000    0.0000

 Populations of individual BAS functions
 ----------------------------------------
 1 C            0.0007  0.9652  1.0726 -0.0385  0.1720  0.1720  0.1720  0.3911  0.3911  0.3911
                0.1036  0.1036  0.1036  0.0000  0.0000  0.0000  0.0000  0.0000  0.0000

 Gross Charges per Atom (Z minus electrons)
 ==========================================
             0.0000
 Net Total:  0.00000000


 Atom-Atom Population Matrix (off-diagonal elements not doubled)
 ===============================================================

     1 :     4.0000



 =============
 Dipole Moment  ***  (Debye)  ***
 =============
  
 Vector   :         0.00000000      0.00000000      0.00000000
 Magnitude:         0.00000000

 This molecular dipole moment is calculated with analytic integration



 =========================================
 Quadrupole Moment (Buckingham convention)  ***  (a.u.)  ***
 =========================================
  
      quad-xx        quad-xy        quad-xz        quad-yy        quad-yz        quad-zz
      0.00000000     0.00000000     0.00000000     0.00000000     0.00000000     0.00000000

 This molecular quadrupole moment is calculated with analytic integration



 ===============================================================================
 Electrostatic potential at the Nuclei due to valence electrons and other nuclei
 ===============================================================================
  
         Atom                  Potential
         ----                  ---------
     1)   C                   3.38850176
 
 
 ========================
 No memory problems found
 ========================
 
 Maximum number of active allocate calls:         383
 
 *******************************************************************************

                             A D F   E X I T
 NORMAL TERMINATION



 =================
 Timing Statistics
 =================
  
 Total Used :                     CPU=        0.13      System=        0.04     Elapsed=        0.18

 Calls  Section                     ( Mean, Percentage )
 ---------------------------------------------------------------------------------------------------
     3  ><      ................      0.00    0.00             0.00    0.00             0.00    0.39
     1  INIT    ................      0.00    3.08             0.00    0.00             0.01    3.70
     1  GEOMET  ................      0.01    7.69             0.04   88.10             0.05   26.88
     1  INPUTA  ................      0.00    1.54             0.00    0.00             0.00    1.05
     1  MAINSY  ................      0.01    6.15             0.00    2.38             0.01    5.10
     1  SYMFIT  ................      0.00    0.77             0.00    0.00             0.00    0.19
     1  CORORT  ................      0.00    0.00             0.00    0.00             0.00    0.14
     1  SYMORB  ................      0.00    0.77             0.00    0.00             0.00    0.79
     1  FITINT  ................      0.01    4.62             0.00    0.00             0.01    3.15
     1  CLSMAT  ................      0.00    0.00             0.00    0.00             0.00    0.15
     1  ORTHON  ................      0.00    0.77             0.00    0.00             0.00    0.78
     1  ETALOW  ................      0.00    0.77             0.00    0.00             0.00    0.55
     1  GENPT   ................      0.01    6.15             0.00    0.00             0.01    4.51
     1  PTBAS   ................      0.00    0.77             0.00    4.76             0.00    1.70
     8  FOCKY   ................      0.01   38.46             0.00    0.00             0.01   27.05
     8  FOCKTR  ................      0.00    2.31             0.00    0.00             0.00    1.62
     8  FOCKNM  ................      0.00    0.00             0.00    0.00             0.00    0.12
     8  SDIIS   ................      0.00    0.77             0.00    0.00             0.00    1.26
     8  EMERGE  ................      0.00   13.85             0.00    0.00             0.00   10.85
     1  COREPS  ................      0.00    3.85             0.00    2.38             0.01    3.67
     1  POPAN   ................      0.00    2.31             0.00    0.00             0.00    1.61
     1  DEBYE   ................      0.00    0.77             0.00    0.00             0.00    0.30
     1  QMPOT   ................      0.00    3.08             0.00    0.00             0.00    2.71
     1  EXIT PROCEDURE .........      0.00    1.54             0.00    2.38             0.00    1.73


 Currently Open Files (EXIT00)
 ====================

 Unit    Access Format  Status   Type       Ident (file)
 -------------------------------------------------------
   3      SEQ    FORM   TRANSP  NORMAL      LOGFILE
                                          ( logfile )


 Buffered I/O statistics
 =======================
 Memory available:                     67108864
 Number of records fitting in memory:     16131
 Input :   1.4% of                         3185  *4k bytes
 Output:  10.9% of                         1776  *4k bytes
 Records from serial files evicted:           0
                    others evicted:           0
 Hash table lookups:      13465 with          0 conflicts (  0.00%)

 ***************************************************************************************************
 (LOGFILE)
 <Mar06-2009> <10:33:57>  DIRAC 2007.01  RunTime: Mar06-2009 10:33:57
 <Mar06-2009> <10:33:57>  NORMAL TERMINATION
 <Mar06-2009> <10:33:57>  END
 <Mar06-2009> <10:33:57>  DIRAC 2007.01  RunTime: Mar06-2009 10:33:57
 <Mar06-2009> <10:33:57>  NORMAL TERMINATION
 <Mar06-2009> <10:33:57>  END
 <Mar06-2009> <10:33:57>  DIRAC 2007.01  RunTime: Mar06-2009 10:33:57
 <Mar06-2009> <10:33:57>  NORMAL TERMINATION
 <Mar06-2009> <10:33:57>  END
 <Mar06-2009> <10:33:58>  ADF 2007.01  RunTime: Mar06-2009 10:33:58
 <Mar06-2009> <10:33:58>  Carbon (TZP, 1s frozen)
 <Mar06-2009> <10:33:58>  RunType   : CREATE
 <Mar06-2009> <10:33:58>  Net Charge: 0 (Nuclei minus Electrons)
 <Mar06-2009> <10:33:58>  Symmetry  : ATOM
 <Mar06-2009> <10:33:58>  >>>> CORORT
 <Mar06-2009> <10:33:58>  >>>> FITINT
 <Mar06-2009> <10:33:58>  >>>> CLSMAT
 <Mar06-2009> <10:33:58>  >>>> ORTHON
 <Mar06-2009> <10:33:58>  >>>> GENPT
 <Mar06-2009> <10:33:58>  Acc.Num.Int.=  10.000
 <Mar06-2009> <10:33:58>  Block Length=  48
 <Mar06-2009> <10:33:58>  >>>> PTBAS
 <Mar06-2009> <10:33:58>  >>>> CYCLE
 <Mar06-2009> <10:33:58>    1
 <Mar06-2009> <10:33:58>    2  ErrMat   0.00596996  MaxEl -0.00497403
 <Mar06-2009> <10:33:58>    3  ErrMat   0.00476878  MaxEl  0.00390461
 <Mar06-2009> <10:33:58>    4  ErrMat   0.00004089  MaxEl -0.00003294
 <Mar06-2009> <10:33:58>    5  ErrMat   0.00000067  MaxEl  0.00000053
 <Mar06-2009> <10:33:58>    6  ErrMat   0.00000002  MaxEl  0.00000001
 <Mar06-2009> <10:33:58>    7  ErrMat   0.00000000  MaxEl  0.00000000
 <Mar06-2009> <10:33:58>  SCF converged
 <Mar06-2009> <10:33:58>    8  ErrMat   0.00000000  MaxEl  0.00000000
 <Mar06-2009> <10:33:58>   Solutions with partially occupied orbitals may not be
 <Mar06-2009> <10:33:58>   lowest in energy. You might consider lowering the
 <Mar06-2009> <10:33:58>   symmetry in the input and explicitly specifying integer
 <Mar06-2009> <10:33:58>   occupations. In that case always check that you obtain
 <Mar06-2009> <10:33:58>   an aufbau solution.
 <Mar06-2009> <10:33:58>  >>>> COREPS
 <Mar06-2009> <10:33:58>  >>>> POPAN
 <Mar06-2009> <10:33:58>  >>>> DEBYE
 <Mar06-2009> <10:33:58>  NORMAL TERMINATION
 <Mar06-2009> <10:33:58>  END
HP-MPI licensed for SCM.


 Parallel Execution: Process Information
 =======================================

 Actual Number of Tasks running:    28
 The Master (kid 0) runs on host maginet-ii156

  Kid Node                   Speed          Task ID   Status
------------------------------------------------------------------
    0 maginet-ii156             -1                0
    1 maginet-ii156             -1                1
    2 maginet-ii157             -1                2
    3 maginet-ii157             -1                3
    4 maginet-ii158             -1                4
    5 maginet-ii158             -1                5
    6 maginet-ii159             -1                6
    7 maginet-ii159             -1                7
    8 maginet-ii160             -1                8
    9 maginet-ii160             -1                9
   10 maginet-ii161             -1               10
   11 maginet-ii161             -1               11
   12 maginet-ii162             -1               12
   13 maginet-ii162             -1               13
   14 maginet-ii170             -1               14
   15 maginet-ii170             -1               15
   16 maginet-ii171             -1               16
   17 maginet-ii171             -1               17
   18 maginet-ii172             -1               18
   19 maginet-ii172             -1               19
   20 maginet-ii173             -1               20
   21 maginet-ii173             -1               21
   22 maginet-ii174             -1               22
   23 maginet-ii174             -1               23
   24 maginet-ii175             -1               24
   25 maginet-ii175             -1               25
   26 maginet-ii176             -1               26
   27 maginet-ii176             -1               27
 
 Communication Options:
 ----------------------
 Broadcast:            4
 Gather   :            4
 Combine  :            4
 




















(INPUT FILE)










create  N  /usr/local/adf2007.01/atomicdata/ZORA/TZP/N.1s
xc
GGA gradients becke perdew
end
relativistic scalar zora
corepotentials t12rel   <++
N    2
end
end input

 *******************************************************************************
 *                                                                             *
 *  -------------------------------------                                      *
 *   Amsterdam Density Functional  (ADF)         2007.01   August 20, 2007     *
 *  -------------------------------------                                      *
 *                                               Build 200708291746            *
 *                                                                             *
 *                                                                             *
 *                              =================                              *
 *                              |               |                              *
 *                              |     A D F     |                              *
 *                              |               |                              *
 *                              =================                              *
 *                                                                             *
 *                                                                             *
 *   Online information and documentation:  http://www.scm.com                 *
 *   E-mail:  support@scm.com   info@scm.com                                   *
 *                                                                             *
 *   Scientific publications using ADF results must be properly referenced     *
 *   See the User Manuals (or the web site) for recommended citations          *
 *   The terms and conditions of the End User License Agreement apply to       *
 *   the use of ADF, http://www.scm.com/Sales/LicAgreement.html                *
 *                                                                             *
 *****************************  pentium64_linux  *******************************
 
 ADF 2007.01  RunTime: Mar06-2009 10:33:59
 Nitrogen (TZP, 1s frozen)



 ===========================
 A T T A C H E D   F I L E S
 ===========================
  
 CREATE - Data File:    /usr/local/adf2007.01/atomicdata/ZORA/TZP/N.1s
                        Nitrogen (TZP, 1s frozen)
 Core Potentials:
         file : t12rel



 ===============================
 M O D E L   P A R A M E T E R S
 ===============================
  
 DENSITY FUNCTIONAL POTENTIAL (scf)
    LDA:                               VWN                                      
    Gradient Corrections:              Becke88 Perdew86                        == Not Default ==

 SPIN  (restricted / unrestr.)
    Molecule:                          Restricted                               

 OTHER ASPECTS
    Relativistic Corrections:          scalar (ZORA,SAPA)                       *** SPECIAL ***
    Core Treatment:                    Frozen Orbital(s)                        

    Electric Field:                    ---                                      

    Hyperfine or Zeeman Interaction:   ---                                      



 =====================================
 S Y M M E T R Y ,   E L E C T R O N S
 =====================================
  
 Symmetry: ATOM

 Irreducible Representations, including subspecies
 -------------------------------------------------
 S
 P:x  P:y  P:z
 D:z2  D:x2-y2  D:xy  D:xz  D:yz
 F:z3  F:z  F:xyz  F:z2x  F:z2y  F:x  F:y


 Configuration of Valence Electrons
 ==================================

          Occupation Numbers
          -------------------------------------------------
 S        2
 P        3
 D        0
 F        0
          -------------------------------------------------

 Total:   5

 Net Charge: 0 (Nuclei minus Electrons)

 Preset values for MO occupations will be applied through SCF cycle no. 1000000
 Thereafter, the program will assign electrons to MOs that are spatially
 similar to the occupied MOs in a "reference" cycle ("KeepOrbitals").
 The reference cycle is always the PREVIOUS cycle: it will evolve with
 the SCF procedure.



 ================================
 (Slater-type)  F U N C T I O N S  ***  (Basis and Fit)  ***
 ================================
  

 Atom Type    1  (N)
 ==============

 Valence Basis Sets:   8
 -----------------------
   1 S    6.380000
   2 S    1.500000
   2 S    2.500000
   2 S    5.150000
   2 P    1.000000
   2 P    1.880000
   2 P    3.680000
   3 D    2.200000

 Frozen Core Shells
 ------------------
    S:  1

 Charge Fitting Sets (for the computation of the Coulomb Potential):  20
 -----------------------------------------------------------------------
   1 S   12.760000
   2 S   13.770000
   2 S    9.060000
   2 S    5.970000
   3 S    5.770000
   3 S    4.050000
   3 S    2.850000
   3 S    2.000000
   2 P   10.060000
   2 P    6.180000
   3 P    5.600000
   3 P    3.710000
   3 P    2.460000
   3 D    8.380000
   3 D    5.200000
   3 D    3.220000
   3 D    2.000000
   4 F    5.800000
   4 F    3.600000
   5 G    4.500000


 BAS: List of all Elementary Cartesian Basis Functions
 =====================================================

 The numbering in the list below (to the right of the function characteristics) is referred
 to in print-outs of MO eigenvectors and Mulliken populations in the BAS representation
 (as contrasted to the SFO representation).

 Notes:
 1. The functions are characterized by a polynomial prefactor (powers of x,y,z and r) and
    an exponential decay factor alpha.
 2. Since the basis sets are specific for an atom TYPE, the individual functions occur on
    all atoms of that type.
 3. The word 'Core' in the left margin signals that it is a Core Function (CF) : not a
    degree of freedom in the valence set, but only used to ensure orthogonalization of
    the other valence basis functions on the frozen Core Orbitals.


 (power of) X  Y  Z  R     Alpha  on Atom
            ==========     =====     ==========

 N                                    1
                                  ---------------------------------------------------------------------------
    Core    0  0  0  0     6.380      1
            0  0  0  1     1.500      2
            0  0  0  1     2.500      3
            0  0  0  1     5.150      4
            1  0  0  0     1.000      5
            0  1  0  0     1.000      6
            0  0  1  0     1.000      7
            1  0  0  0     1.880      8
            0  1  0  0     1.880      9
            0  0  1  0     1.880     10
            1  0  0  0     3.680     11
            0  1  0  0     3.680     12
            0  0  1  0     3.680     13
            2  0  0  0     2.200     14
            1  1  0  0     2.200     15
            1  0  1  0     2.200     16
            0  2  0  0     2.200     17
            0  1  1  0     2.200     18
            0  0  2  0     2.200     19


 BAS: List of all Elementary Cartesian Basis Functions
 =====================================================

 The numbering in the list below (to the right of the function characteristics) is referred
 to in print-outs of MO eigenvectors and Mulliken populations in the BAS representation
 (as contrasted to the SFO representation).

 Notes:
 1. The functions are characterized by a polynomial prefactor (powers of x,y,z and r) and
    an exponential decay factor alpha.
 2. Since the basis sets are specific for an atom TYPE, the individual functions occur on
    all atoms of that type.
 3. The word 'Core' in the left margin signals that it is a Core Function (CF) : not a
    degree of freedom in the valence set, but only used to ensure orthogonalization of
    the other valence basis functions on the frozen Core Orbitals.


 (power of) X  Y  Z  R     Alpha  on Atom
            ==========     =====     ==========

 N                                    1
                                  ---------------------------------------------------------------------------
    Core    0  0  0  0     6.380      1
            0  0  0  1     1.500      2
            0  0  0  1     2.500      3
            0  0  0  1     5.150      4
            1  0  0  0     1.000      5
            0  1  0  0     1.000      6
            0  0  1  0     1.000      7
            1  0  0  0     1.880      8
            0  1  0  0     1.880      9
            0  0  1  0     1.880     10
            1  0  0  0     3.680     11
            0  1  0  0     3.680     12
            0  0  1  0     3.680     13
            2  0  0  0     2.200     14
            1  1  0  0     2.200     15
            1  0  1  0     2.200     16
            0  2  0  0     2.200     17
            0  1  1  0     2.200     18
            0  0  2  0     2.200     19


 Parallel Execution: Process Information
 =======================================

 Actual Number of Tasks running:    28
 The Master (kid 0) runs on host maginet-ii156

  Kid Node                   Speed          Task ID   Status
------------------------------------------------------------------
    0 maginet-ii156           1000                0
    1 maginet-ii156           1000                1
    2 maginet-ii157           1000                2
    3 maginet-ii157           1000                3
    4 maginet-ii158           1000                4
    5 maginet-ii158           1000                5
    6 maginet-ii159           1000                6
    7 maginet-ii159           1000                7
    8 maginet-ii160           1000                8
    9 maginet-ii160           1000                9
   10 maginet-ii161           1000               10
   11 maginet-ii161           1000               11
   12 maginet-ii162           1000               12
   13 maginet-ii162           1000               13
   14 maginet-ii170           1000               14
   15 maginet-ii170           1000               15
   16 maginet-ii171           1000               16
   17 maginet-ii171           1000               17
   18 maginet-ii172           1000               18
   19 maginet-ii172           1000               19
   20 maginet-ii173           1000               20
   21 maginet-ii173           1000               21
   22 maginet-ii174           1000               22
   23 maginet-ii174           1000               23
   24 maginet-ii175           1000               24
   25 maginet-ii175           1000               25
   26 maginet-ii176           1000               26
   27 maginet-ii176           1000               27
 
 Communication Options:
 ----------------------
 Broadcast:            4
 Gather   :            4
 Combine  :            4
 
1
 ***************************************************************************************************



                                              ***********************
                                              *  T E C H N I C A L  *
                                              ***********************
  



 =============================================================
 P A R A L L E L I Z A T I O N  and  V E C T O R I Z A T I O N
 =============================================================
  
 Nr of parallel processes:                               28
 Internal max. (compile-time) nr of processes:          128
 Maximum vector length in NumInt loops:                 128



 ===============
 I O  vs.  C P U  ***  (store numerical data on disk or recalculate)  ***
 ===============
  
 Basis functions:   recalculate when needed
 Fit functions:     recalculate when needed

 IO buffersize (Mb):                                     64.000000



 =====================
 S C F   U P D A T E S
 =====================
  
 Max. nr. of cycles:                               100
 Convergence criterion:                              0.0000000100
   secondary criterion:                              0.0000000100

 Mix parameter (when DIIS does not apply):           0.2000000000
 Special mix parameter for the first cycle:          1.0000000000


 DIIS (Direct Inversion in Iteration Space)
    Replace damping when SCF Error is below:         0.5000000000
    Apply anyway after SCF cycle:
                                                     5
    (Max.) nr. of expansion vectors:                10

    Upperbound on expansion coefficients:            5.0000000000
    (when exceeded, IterationSpace is re-built)
    2nd Upperbound on coefficients:                 25.0000000000
    (when exceeded, simple damping will be used)
 Automatic ElectronSmearing (in case of problematic SCF convergence) disabled



 =================
 P R E C I S I O N  ***  (General: NumInt, NeglectFunctionTails, ...)  ***
 =================
  

 NumInt:           Target precision:                10.0000000000
 -------           Initial precision:               10.0000000000
                   Min. precision (optimization):   10.0000000000

 Neglect Functions:          Basis functions:        0.1000000000E-11
 ------------------          Fit functions:          0.1000000000E-11



 ===========================
 L I N E A R   S C A L I N G
 ===========================
  

 Cut-off radii density fit:                        0.1000000000E-13
 Overlap cut-off criterion AO matrix elements:     0.1000000000E-11
 Cut-offs for Coulomb potential and fitted density:0.1000000000E-13
 Cut-off criterion for Coulomb multipole terms:    0.1000000000E-13
1
 ***************************************************************************************************



                                            ***************************
                                            *  C O M P U T A T I O N  *
                                            ***************************
  

 Number of elements of the density matrix on this node (used, total):       190       190



 ====================================================
 Numerical Integration : Voronoi Polyhedra (Te Velde)  ***  (parameters, tests)  ***
 ====================================================
  
 General Accuracy Parameter :                         10.00

 Symmetry used in the points section:  ATOM  


 Summary of the Symmetry Unique Points:
 --------------------------------------
    Nr. of used Symmetry Operators                     1

    Points in the Atomic Spheres                      52
    Points in the Atomic Polyhedra                     0
    Points in the Outer Region                         0
    ----------------------------------------------------
    Total                                             52

    Sum of Weights                                 58501.056183

 Total nr. of points:         52
 Nr. of blocks:                1
 Block length:                52
 Nr. of dummy points:          0


 Test of Precision of the Numerical Integration Grid
 ===================================================

 Integral of the Total Core Density:                   1.99999976505016
 Relative Error:                                      -1.175E-07



 =====
 S C F
 =====
  

 CYCLE    1
 orbitals (Q,E):
 ---------------
 S :1...3            ( 2.00    -0.6931)  ( 0.00     0.5854)  ( 0.00    12.4030)
 P :1...3            ( 3.00    -0.2698)  ( 0.00     0.2843)  ( 0.00     3.2785)
 D :1...1            ( 0.00     1.2344)

 CYCLE    2
 d-Pmat  mean:  0.39E-02
 imax=      3: -0.16E-01
 orbitals (Q,E):
 ---------------
 S :1...2            ( 2.00    -0.6846)  ( 0.00     0.5914)
 P :1...2            ( 3.00    -0.2616)  ( 0.00     0.2886)
 D :1...1            ( 0.00     1.2411)

 CYCLE    3
 d-Pmat  mean:  0.20E-02
 imax=      3:  0.82E-02
 orbitals (Q,E):
 ---------------
 S :1...2            ( 2.00    -0.6886)  ( 0.00     0.5885)
 P :1...2            ( 3.00    -0.2655)  ( 0.00     0.2866)
 D :1...1            ( 0.00     1.2380)

 CYCLE    4
 d-Pmat  mean:  0.16E-05
 imax=      3:  0.82E-05
 orbitals (Q,E):
 ---------------
 S :1...2            ( 2.00    -0.6886)  ( 0.00     0.5885)
 P :1...2            ( 3.00    -0.2655)  ( 0.00     0.2865)
 D :1...1            ( 0.00     1.2380)

 CYCLE    5
 d-Pmat  mean:  0.65E-07
 imax=      3:  0.26E-06
 orbitals (Q,E):
 ---------------
 S :1...2            ( 2.00    -0.6886)  ( 0.00     0.5885)
 P :1...2            ( 3.00    -0.2655)  ( 0.00     0.2865)
 D :1...1            ( 0.00     1.2380)

 CYCLE    6
 d-Pmat  mean:  0.19E-08
 imax=      3: -0.83E-08
 orbitals (Q,E):
 ---------------
 S :1...2            ( 2.00    -0.6886)  ( 0.00     0.5885)
 P :1...2            ( 3.00    -0.2655)  ( 0.00     0.2865)
 D :1...1            ( 0.00     1.2380)

 SCF CONVERGED

 CYCLE    7
1
 ***************************************************************************************************



                                                *******************
                                                *  R E S U L T S  *
                                                *******************
  
 *** Setting up for NEW gradients in focky
 *** Using FIT density in focky

 Scaled ZORA Orbital Energies, per Irrep and Spin:
 =================================================
                        Occup              E (au)              E (eV)       Diff (eV) with prev. cycle
                        -----      --------------------        ------       --------------------------
 S
               1        2.000     -0.68864891057620E+00       -18.739              -4.82E-10
               2        0.000      0.58853929207469E+00        16.015
               3        0.000      0.12411569376876E+02       337.736
 P
               1        3.000     -0.26551041327815E+00        -7.225              -4.65E-10
               2        0.000      0.28654952673984E+00         7.797
               3        0.000      0.32848355330571E+01        89.385
 D
               1        0.000      0.12379727162515E+01        33.687


 Partially Occupied:
               1 P                -0.26551041327815E+00
  
 HOMO :        1 S                -0.68864891057620E+00
 LUMO :        2 P                 0.28654952673984E+00
  


 Orbital Energies, all Irreps
 ========================================

 Irrep        no.  (spin)   Occup              E (au)                E (eV)
 ---------------------------------------------------------------------------
 S             1             2.00       -0.68864891057620E+00       -18.7391
 P             1             3.00       -0.26551041327815E+00        -7.2249
 P             2             0.00        0.28654952673984E+00         7.7974
 S             2             0.00        0.58853929207469E+00        16.0150
 D             1             0.00        0.12379727162515E+01        33.6870
 P             3             0.00        0.32848355330571E+01        89.3849
 S             3             0.00        0.12411569376876E+02       337.7360


 Scaled ZORA Orbital Energies of the Core Orbitals:
 ==================================================

 (Note that the atoms are grouped by atomtype, see the labels, and may hence NOT be in input order)

 AtomType  Orbital  Atom                   E (au)                        E (eV)
 --------  -------  ----           --------------------        ----------------
 N           1S        1          -0.14169421976072E+02                -385.570



 =======================================
 M U L L I K E N   P O P U L A T I O N S
 =======================================
  
 The survey below gives for each atom:
 a) the total charge (Z minus electrons)
 b) the net spin polarization (nr of electrons spin-A minus spin-B)
 c) for each spin the atomic electron valence density (integrated) per L-value.

 Atom              Charge    Spin density          S         P         D         F
 ----              ------    ------------       ------    ------    ------    ------
 1 N               0.0000                       2.0000    3.0000    0.0000    0.0000

 Populations of individual BAS functions
 ----------------------------------------
 1 N            0.0006  0.9068  1.1442 -0.0516  0.2934  0.2934  0.2934  0.5653  0.5653  0.5653
                0.1413  0.1413  0.1413  0.0000  0.0000  0.0000  0.0000  0.0000  0.0000

 Gross Charges per Atom (Z minus electrons)
 ==========================================
             0.0000
 Net Total:  0.00000000


 Atom-Atom Population Matrix (off-diagonal elements not doubled)
 ===============================================================

     1 :     5.0000



 =============
 Dipole Moment  ***  (Debye)  ***
 =============
  
 Vector   :         0.00000000      0.00000000      0.00000000
 Magnitude:         0.00000000

 This molecular dipole moment is calculated with analytic integration



 =========================================
 Quadrupole Moment (Buckingham convention)  ***  (a.u.)  ***
 =========================================
  
      quad-xx        quad-xy        quad-xz        quad-yy        quad-yz        quad-zz
      0.00000000     0.00000000     0.00000000     0.00000000     0.00000000     0.00000000

 This molecular quadrupole moment is calculated with analytic integration



 ===============================================================================
 Electrostatic potential at the Nuclei due to valence electrons and other nuclei
 ===============================================================================
  
         Atom                  Potential
         ----                  ---------
     1)   N                   5.03092963
 
 
 ========================
 No memory problems found
 ========================
 
 Maximum number of active allocate calls:         381
 
 *******************************************************************************

                             A D F   E X I T
 NORMAL TERMINATION



 =================
 Timing Statistics
 =================
  
 Total Used :                     CPU=        0.39      System=        0.08     Elapsed=        0.98

 Calls  Section                     ( Mean, Percentage )
 ---------------------------------------------------------------------------------------------------
     3  ><      ................      0.00    0.00             0.00    1.23             0.00    0.07
     1  INIT    ................      0.00    0.51             0.00    1.23             0.03    3.14
     1  GEOMET  ................      0.01    3.07             0.05   67.90             0.07    6.84
     1  INPUTA  ................      0.00    0.51             0.00    0.00             0.00    0.19
     1  MAINSY  ................      0.01    3.32             0.01    7.41             0.39   40.39
     1  SYMFIT  ................      0.00    0.00             0.00    0.00             0.00    0.03
     1  CORORT  ................      0.00    0.00             0.00    0.00             0.00    0.02
     1  SYMORB  ................      0.00    0.51             0.00    0.00             0.00    0.14
     1  FITINT  ................      0.01    1.28             0.00    0.00             0.01    0.56
     1  CLSMAT  ................      0.00    0.00             0.00    0.00             0.00    0.04
     1  ORTHON  ................      0.24   61.13             0.00    1.23             0.24   24.55
     1  ETALOW  ................      0.00    0.26             0.00    0.00             0.00    0.10
     1  GENPT   ................      0.00    1.28             0.00    1.23             0.01    1.08
     1  PTBAS   ................      0.00    0.51             0.00    1.23             0.00    0.49
     7  FOCKY   ................      0.01   12.53             0.00    4.94             0.01    8.23
     7  FOCKTR  ................      0.00    0.77             0.00    0.00             0.00    0.26
     7  FOCKNM  ................      0.00    0.00             0.00    0.00             0.00    0.02
     7  SDIIS   ................      0.00    2.30             0.00    4.94             0.00    2.24
     7  EMERGE  ................      0.00    4.86             0.00    0.00             0.00    2.25
     1  COREPS  ................      0.01    1.79             0.00    0.00             0.01    0.92
     1  POPAN   ................      0.00    0.77             0.00    0.00             0.00    0.34
     1  DEBYE   ................      0.00    0.26             0.00    0.00             0.00    0.29
     1  QMPOT   ................      0.00    1.02             0.00    1.23             0.01    0.53
     1  EXIT PROCEDURE .........      0.01    3.32             0.01    7.41             0.07    7.27


 Currently Open Files (EXIT00)
 ====================

 Unit    Access Format  Status   Type       Ident (file)
 -------------------------------------------------------
   3      SEQ    FORM   TRANSP  NORMAL      LOGFILE
                                          ( logfile )


 Buffered I/O statistics
 =======================
 Memory available:                     67108864
 Number of records fitting in memory:     16131
 Input :   1.4% of                         2925  *4k bytes
 Output:  11.6% of                         1657  *4k bytes
 Records from serial files evicted:           0
                    others evicted:           0
 Hash table lookups:      12432 with          0 conflicts (  0.00%)

 ***************************************************************************************************
 (LOGFILE)
 <Mar06-2009> <10:33:59>  ADF 2007.01  RunTime: Mar06-2009 10:33:59
 <Mar06-2009> <10:33:59>  Nitrogen (TZP, 1s frozen)
 <Mar06-2009> <10:33:59>  RunType   : CREATE
 <Mar06-2009> <10:33:59>  Net Charge: 0 (Nuclei minus Electrons)
 <Mar06-2009> <10:33:59>  Symmetry  : ATOM
 <Mar06-2009> <10:33:59>  >>>> CORORT
 <Mar06-2009> <10:33:59>  >>>> FITINT
 <Mar06-2009> <10:33:59>  >>>> CLSMAT
 <Mar06-2009> <10:33:59>  >>>> ORTHON
 <Mar06-2009> <10:33:59>  >>>> GENPT
 <Mar06-2009> <10:33:59>  Acc.Num.Int.=  10.000
 <Mar06-2009> <10:33:59>  Block Length=  52
 <Mar06-2009> <10:33:59>  >>>> PTBAS
 <Mar06-2009> <10:33:59>  >>>> CYCLE
 <Mar06-2009> <10:33:59>    1
 <Mar06-2009> <10:33:59>    2  ErrMat   0.01161432  MaxEl -0.00817310
 <Mar06-2009> <10:33:59>    3  ErrMat   0.01166870  MaxEl  0.00815123
 <Mar06-2009> <10:33:59>    4  ErrMat   0.00001012  MaxEl  0.00000705
 <Mar06-2009> <10:33:59>    5  ErrMat   0.00000033  MaxEl  0.00000022
 <Mar06-2009> <10:33:59>    6  ErrMat   0.00000001  MaxEl -0.00000001
 <Mar06-2009> <10:33:59>  SCF converged
 <Mar06-2009> <10:33:59>    7  ErrMat   0.00000000  MaxEl  0.00000000
 <Mar06-2009> <10:33:59>   Solutions with partially occupied orbitals may not be
 <Mar06-2009> <10:33:59>   lowest in energy. You might consider lowering the
 <Mar06-2009> <10:33:59>   symmetry in the input and explicitly specifying integer
 <Mar06-2009> <10:33:59>   occupations. In that case always check that you obtain
 <Mar06-2009> <10:33:59>   an aufbau solution.
 <Mar06-2009> <10:33:59>  >>>> COREPS
 <Mar06-2009> <10:33:59>  >>>> POPAN
 <Mar06-2009> <10:33:59>  >>>> DEBYE
 <Mar06-2009> <10:33:59>  NORMAL TERMINATION
 <Mar06-2009> <10:34:00>  END


(INPUT FILE)

create  Sc  /usr/local/adf2007.01/atomicdata/ZORA/TZP/Sc.2p
xc
GGA gradients becke perdew
end
relativistic scalar zora
corepotentials t12rel   <++
Sc    3
end
end input

 *******************************************************************************
 *                                                                             *
 *  -------------------------------------                                      *
 *   Amsterdam Density Functional  (ADF)         2007.01   August 20, 2007     *
 *  -------------------------------------                                      *
 *                                               Build 200708291746            *
 *                                                                             *
 *                                                                             *
 *                              =================                              *
 *                              |               |                              *
 *                              |     A D F     |                              *
 *                              |               |                              *
 *                              =================                              *
 *                                                                             *
 *                                                                             *
 *   Online information and documentation:  http://www.scm.com                 *
 *   E-mail:  support@scm.com   info@scm.com                                   *
 *                                                                             *
 *   Scientific publications using ADF results must be properly referenced     *
 *   See the User Manuals (or the web site) for recommended citations          *
 *   The terms and conditions of the End User License Agreement apply to       *
 *   the use of ADF, http://www.scm.com/Sales/LicAgreement.html                *
 *                                                                             *
 *****************************  pentium64_linux  *******************************
 
 ADF 2007.01  RunTime: Mar06-2009 10:34:00
 Scandium (TZP, 2p frozen)



 ===========================
 A T T A C H E D   F I L E S
 ===========================
  
 CREATE - Data File:    /usr/local/adf2007.01/atomicdata/ZORA/TZP/Sc.2p
                        Scandium (TZP, 2p frozen)
 Core Potentials:
         file : t12rel



 ===============================
 M O D E L   P A R A M E T E R S
 ===============================
  
 DENSITY FUNCTIONAL POTENTIAL (scf)
    LDA:                               VWN                                      
    Gradient Corrections:              Becke88 Perdew86                        == Not Default ==

 SPIN  (restricted / unrestr.)
    Molecule:                          Restricted                               

 OTHER ASPECTS
    Relativistic Corrections:          scalar (ZORA,SAPA)                       *** SPECIAL ***
    Core Treatment:                    Frozen Orbital(s)                        

    Electric Field:                    ---                                      

    Hyperfine or Zeeman Interaction:   ---                                      



 =====================================
 S Y M M E T R Y ,   E L E C T R O N S
 =====================================
  
 Symmetry: ATOM

 Irreducible Representations, including subspecies
 -------------------------------------------------
 S
 P:x  P:y  P:z
 D:z2  D:x2-y2  D:xy  D:xz  D:yz
 F:z3  F:z  F:xyz  F:z2x  F:z2y  F:x  F:y


 Configuration of Valence Electrons
 ==================================

          Occupation Numbers
          -------------------------------------------------
 S        2*2
 P        6
 D        1
 F        0
          -------------------------------------------------

 Total:   11

 Net Charge: 0 (Nuclei minus Electrons)

 Preset values for MO occupations will be applied through SCF cycle no. 1000000
 Thereafter, the program will assign electrons to MOs that are spatially
 similar to the occupied MOs in a "reference" cycle ("KeepOrbitals").
 The reference cycle is always the PREVIOUS cycle: it will evolve with
 the SCF procedure.



 ================================
 (Slater-type)  F U N C T I O N S  ***  (Basis and Fit)  ***
 ================================
  

 Atom Type    1  (Sc)
 ==============

 Valence Basis Sets:  15
 -----------------------
   1 S   16.800000
   2 S    6.800000
   2 P    8.450000
   3 S    3.200000
   3 S    5.250000
   3 P    5.150000
   3 P    3.350000
   3 P    2.150000
   3 D    0.900000
   3 D    2.000000
   3 D    4.400000
   4 S    0.800000
   4 S    1.150000
   4 S    1.750000
   4 P    1.140000

 Frozen Core Shells
 ------------------
    S:  2
    P:  1

 Charge Fitting Sets (for the computation of the Coulomb Potential):  34
 -----------------------------------------------------------------------
   1 S   33.600000
   2 S   32.340000
   3 S   28.610000
   4 S   24.650000
   4 S   16.810000
   5 S   14.340000
   5 S   10.150000
   6 S    8.630000
   6 S    6.280000
   6 S    4.570000
   7 S    3.890000
   7 S    2.890000
   7 S    2.150000
   7 S    1.600000
   2 P   25.250000
   3 P   16.380000
   4 P   10.800000
   5 P    7.260000
   6 P    4.970000
   6 P    2.930000
   7 P    2.040000
   3 D   21.200000
   4 D   13.500000
   5 D    8.800000
   6 D    5.860000
   6 D    3.360000
   7 D    2.280000
   4 F   12.850000
   5 F    7.290000
   5 F    3.480000
   6 F    2.040000
   5 G    7.550000
   5 G    3.890000
   5 G    2.000000


 BAS: List of all Elementary Cartesian Basis Functions
 =====================================================

 The numbering in the list below (to the right of the function characteristics) is referred
 to in print-outs of MO eigenvectors and Mulliken populations in the BAS representation
 (as contrasted to the SFO representation).

 Notes:
 1. The functions are characterized by a polynomial prefactor (powers of x,y,z and r) and
    an exponential decay factor alpha.
[...]
     2  CORORT  ................      0.69    0.00             0.01    0.00             0.71    0.00
     2  SYMORB  ................      1.46    0.00             0.03    0.00             1.50    0.00
     4  FITINT  ................   1596.79    3.81            11.46    1.23          1784.66    3.89
     2  CLSMAT  ................      0.16    0.00             0.07    0.00             0.45    0.00
     2  ORTHON  ................      6.68    0.01             0.55    0.03             8.52    0.01
     2  ETALOW  ................      0.18    0.00             0.04    0.00             0.23    0.00
     2  GENPT   ................      6.04    0.01             0.68    0.04             9.14    0.01
     2  PTBAS   ................     70.42    0.08             0.43    0.02            98.12    0.11
    25  FOCKY   ................     13.36    0.20             0.54    0.36            14.51    0.20
    25  FOCKTR  ................      0.62    0.01             0.22    0.15             1.28    0.02
    25  FOCKNM  ................      0.00    0.00             0.00    0.00             0.00    0.00
    25  SDIIS   ................      0.25    0.00             0.03    0.02             0.54    0.01
    25  EMERGE  ................     12.71    0.19             0.11    0.07            14.20    0.19
     2  TOTEN   ................    237.52    0.28             2.70    0.15           249.38    0.27
     2  POPAN   ................      0.24    0.00             0.11    0.01             0.45    0.00
     2  DEBYE   ................      1.07    0.00             0.37    0.02             2.05    0.00
     2  INPUTE  ................      0.00    0.00             0.00    0.00             0.00    0.00
     2  SYMORE  ................      0.02    0.00             0.00    0.00             0.03    0.00
     4  METS    ................      0.09    0.00             0.02    0.00             0.11    0.00
     2  CETS    ................      2.99    0.00             0.80    0.04             5.85    0.01
     3  ELNRGY  ................    153.08    0.27             0.35    0.03           173.81    0.28
     1  ENGRAD  ................     29.73    0.02             1.04    0.03            32.97    0.02
     1  GEOSTP  ................      0.62    0.00             0.02    0.00             0.74    0.00
     1  COREPS  ................      5.18    0.00             0.27    0.01             5.48    0.00
     1  POPUL   ................      9.84    0.01             0.06    0.00             9.93    0.01
     1  QMPOT   ................      0.03    0.00             0.00    0.00             0.03    0.00
     1  ENHESS  ................ 159540.43   95.10          3630.52   97.77        174133.51   94.97
     1  EXIT PROCEDURE .........      0.11    0.00             0.29    0.01             0.46    0.00


 Currently Open Files (EXIT00)
 ====================

 Unit    Access Format  Status   Type       Ident (file)
 -------------------------------------------------------
   3      SEQ    FORM   TRANSP  NORMAL      LOGFILE
                                          ( logfile )


 Buffered I/O statistics
 =======================
 Memory available:                     67108864
 Number of records fitting in memory:     16131
 Input :  50.2% of                    145846825  *4k bytes
 Output:  52.3% of                     15891894  *4k bytes
 Records from serial files evicted:    64224603
                    others evicted:    15852525
 Hash table lookups:  468786743 with  243251898 conflicts ( 51.89%)

 ***************************************************************************************************
 (LOGFILE)
 <Mar06-2009> <10:34:02>  ADF 2007.01  RunTime: Mar06-2009 10:34:02
 <Mar06-2009> <10:34:02>  *** (NO TITLE) ***
 <Mar06-2009> <10:34:02>  RunType   : GEOMETRY OPTIMIZATION
 <Mar06-2009> <10:34:03>  Net Charge: 0 (Nuclei minus Electrons)
 <Mar06-2009> <10:34:03>  Symmetry  : NOSYM
 <Mar06-2009> <10:34:03>  >>>> FRAGM
  Coordinates in Geometry Cycle 1
    Atom         X           Y           Z   (Angstrom)
    1.C         2.441473    2.154867    2.586351
    2.C         1.156327    2.300309    3.145462
    3.C         2.754317    2.805645    1.323812
    4.C         3.117810    0.882766    2.614782
    5.C         0.587330    1.173150    3.826977
    6.C         0.231607    3.189782    2.511950
    7.C        -0.823090    0.924431    3.861149
    8.C         1.264743   -0.086691    3.909541
    9.C         0.557739    3.924285    1.305201
   10.C        -1.180244    2.927060    2.519796
   11.C         1.807127    3.618914    0.622656
   12.C        -0.690960    4.173704    0.597356
   13.C         1.802191    3.573268   -0.850320
   14.C         3.660435    1.939882    0.623723
   15.C        -1.744523    1.789054    3.175044
   16.C        -1.740933    3.459121    1.300591
   17.C        -2.907742    1.211765    2.623743
   18.C        -1.036294   -0.493251    4.009655
   19.C        -3.459825    1.706299    1.377739
   20.C        -3.092477   -0.219311    2.661462
   21.C        -0.695713    4.122670   -0.838047
   22.C         0.547101    3.833564   -1.539785
   23.C        -1.749036    3.376196   -1.496499
   24.C        -2.838708    2.766871    0.656556
   25.C        -2.841776    2.725595   -0.808780
   26.C        -4.020658    0.577881    0.687797
   27.C         2.746507    2.726033   -1.511509
   28.C         3.656716    1.901847   -0.771310
   29.C         2.421576    2.006438   -2.731723
   30.C         0.214154    3.047700   -2.710435
   31.C        -2.156840   -1.084214    3.309534
   32.C        -3.766888   -0.613519    1.438504
   33.C        -1.937251   -2.370072    2.720434
   34.C         0.278425   -1.140727    4.065669
   35.C        -2.600961   -2.750246    1.490581
   36.C        -0.632505   -3.017672    2.753109
   37.C        -4.025514    0.537769   -0.708792
   38.C        -3.468829    1.627344   -1.466277
   39.C        -3.775154   -0.693875   -1.393980
   40.C        -3.468818   -1.848618    0.788489
   41.C        -3.473151   -1.889254   -0.675607
   42.C        -1.734793   -3.653263    0.803975
   43.C        -1.197783    2.787256   -2.695020
   44.C        -2.922527    1.063697   -2.683150
   45.C         0.508123   -2.408413    3.386711
   46.C        -0.501553   -3.772686    1.518082
   47.C         1.754375   -2.565681    2.704864
   48.C         1.895285   -3.357224    1.494298
   49.C         2.773911   -1.530594    2.663397
   50.C        -1.739971   -3.692581   -0.601075
   51.C        -2.610904   -2.828907   -1.331628
   52.C        -0.509751   -3.849802   -1.314604
   53.C         0.752155   -3.896748    0.832294
   54.C         0.747760   -3.937372   -0.632507
   55.C         3.004335   -2.828651    0.764550
   56.C        -3.105093   -0.367109   -2.638963
   57.C        -1.953021   -2.516395   -2.585953
   58.C         2.526845   -0.253854    3.231865
   59.C         3.524992   -1.677298    1.448115
   60.C         3.855899    0.735957    1.380335
   61.C         2.999741   -2.867170   -0.638167
   62.C         1.886817   -3.435173   -1.329033
   63.C         3.516324   -1.756201   -1.387787
   64.C         3.993079   -0.526055    0.728899
   65.C         3.988615   -0.567385   -0.738370
   66.C        -0.647274   -3.157493   -2.582053
   67.C         1.740511   -2.712981   -2.581890
   68.C         2.760229   -1.677308   -2.605996
   69.C         3.848796    0.657511   -1.458506
   70.C         3.098992    0.732791   -2.693240
   71.C         2.505990   -0.435976   -3.242148
   72.C         1.238375   -0.304410   -3.917779
   73.C         0.252112   -1.363021   -4.010690
   74.C         0.560891    0.957397   -3.903589
   75.C         0.485137   -2.581199   -3.250518
   76.C        -1.066673   -0.717961   -4.001085
   77.C        -2.182997   -1.269845   -3.255366
   78.C        -0.850265    0.707107   -3.922898
   79.C        -1.765535    1.611697   -3.276486
   80.C         1.133192    2.123393   -3.292794
   81.N        -0.233101    0.061187   -0.001644
   82.Sc       -0.130688    2.079865   -0.021893
   83.Sc       -0.243908   -0.829196   -1.826001
   84.Sc       -0.173889   -0.773200    1.831075
 <Mar06-2009> <10:34:03>  >>>> CORORT
 <Mar06-2009> <10:34:06>  >>>> FITINT
 <Mar06-2009> <10:34:10>  >>>> CLSMAT
 <Mar06-2009> <10:34:10>  >>>> ORTHON
 <Mar06-2009> <10:34:19>  >>>> GENPT
 <Mar06-2009> <10:34:19>  Acc.Num.Int.=   6.000
 <Mar06-2009> <10:34:20>  Block Length= 128
 <Mar06-2009> <10:34:29>  >>>> PTBAS
 <Mar06-2009> <10:36:06>  >>>> CYCLE
 <Mar06-2009> <10:36:19>    1
 <Mar06-2009> <10:37:15>    2  ErrMat   2.57773289  MaxEl -0.34287130
 <Mar06-2009> <10:37:41>    3  ErrMat   1.36484361  MaxEl -0.06954181
 <Mar06-2009> <10:38:07>    4  ErrMat   2.46205103  MaxEl -0.32958009
 <Mar06-2009> <10:38:33>    5  ErrMat   1.15078799  MaxEl  0.16791933
 <Mar06-2009> <10:38:59>    6  ErrMat   0.44729681  MaxEl  0.04682879
 <Mar06-2009> <10:39:25>    7  ErrMat   0.42290900  MaxEl -0.02715194
 <Mar06-2009> <10:39:51>    8  ErrMat   0.10874159  MaxEl -0.01784919
 <Mar06-2009> <10:40:17>    9  ErrMat   0.07478802  MaxEl -0.01324384
 <Mar06-2009> <10:40:43>   10  ErrMat   0.02101417  MaxEl -0.00209033
 <Mar06-2009> <10:41:08>   11  ErrMat   0.01822587  MaxEl -0.00184917
 <Mar06-2009> <10:41:35>   12  ErrMat   0.00554612  MaxEl -0.00045438
 <Mar06-2009> <10:41:45>  SCF converged
 <Mar06-2009> <10:42:01>   13  ErrMat   0.00203516  MaxEl  0.00020011
 <Mar06-2009> <10:42:41>  >>>> TOTEN
 <Mar06-2009> <10:46:50>  >>>> POPAN
 <Mar06-2009> <10:46:50>  >>>> DEBYE
 <Mar06-2009> <10:46:52>  >>>> AMETS
 <Mar06-2009> <10:46:58>  >>>> ENGRAD
 <Mar06-2009> <10:56:13>  E-test:  old,new=   0.00000, -26.53051 hartree
 <Mar06-2009> <10:56:13>  max gradient:      0.00975035 au/angstrom,radian
 <Mar06-2009> <10:56:13>  max cart. step:    0.00100133 angstrom
 <Mar06-2009> <10:56:13>  Geometry Converged
  Coordinates in Geometry Cycle 2
    Atom         X           Y           Z   (Angstrom)
    1.C         2.441891    2.155056    2.585988
    2.C         1.156308    2.300113    3.145575
    3.C         2.754641    2.805451    1.323850
    4.C         3.118390    0.882782    2.614583
    5.C         0.587308    1.172857    3.827370
    6.C         0.231345    3.189752    2.511877
    7.C        -0.822878    0.924556    3.861423
    8.C         1.264516   -0.086641    3.909982
    9.C         0.557329    3.924572    1.305263
   10.C        -1.180005    2.926947    2.519928
   11.C         1.807307    3.618744    0.622949
   12.C        -0.691197    4.174235    0.597324
   13.C         1.801881    3.573241   -0.850450
   14.C         3.661034    1.940340    0.624249
   15.C        -1.744405    1.789102    3.175016
   16.C        -1.741100    3.459642    1.300954
   17.C        -2.908088    1.212072    2.623483
   18.C        -1.036091   -0.493158    4.010022
   19.C        -3.459770    1.706828    1.378025
   20.C        -3.092881   -0.219494    2.661125
   21.C        -0.695335    4.123011   -0.837856
   22.C         0.546664    3.833416   -1.539125
   23.C        -1.748943    3.376545   -1.496928
   24.C        -2.838963    2.766831    0.656717
   25.C        -2.842535    2.725130   -0.809044
   26.C        -4.021276    0.578125    0.687933
   27.C         2.746768    2.726126   -1.511792
   28.C         3.657521    1.901903   -0.771166
   29.C         2.422158    2.006412   -2.731251
   30.C         0.213395    3.048093   -2.710412
   31.C        -2.157019   -1.084284    3.309591
   32.C        -3.767110   -0.613759    1.439137
   33.C        -1.937229   -2.370028    2.720456
   34.C         0.278747   -1.140436    4.065677
   35.C        -2.601087   -2.749963    1.490830
   36.C        -0.632559   -3.017505    2.752953
   37.C        -4.026216    0.538479   -0.709692
   38.C        -3.469618    1.627638   -1.466333
   39.C        -3.775627   -0.693625   -1.394121
   40.C        -3.468911   -1.847947    0.788725
   41.C        -3.473059   -1.888719   -0.675955
   42.C        -1.734715   -3.653521    0.803905
   43.C        -1.198026    2.787237   -2.695568
   44.C        -2.923003    1.064532   -2.682863
   45.C         0.507967   -2.408185    3.386715
   46.C        -0.501489   -3.772916    1.518132
   47.C         1.754598   -2.565798    2.705190
   48.C         1.895172   -3.356947    1.494211
   49.C         2.774375   -1.530691    2.663376
   50.C        -1.739678   -3.692735   -0.601303
   51.C        -2.610667   -2.828658   -1.332125
   52.C        -0.509977   -3.850393   -1.314440
   53.C         0.751912   -3.896562    0.832294
   54.C         0.747522   -3.937424   -0.632543
   55.C         3.004443   -2.828116    0.764796
   56.C        -3.105582   -0.367707   -2.638784
   57.C        -1.953662   -2.516410   -2.586175
   58.C         2.526774   -0.253890    3.232126
   59.C         3.525085   -1.677326    1.448198
   60.C         3.856900    0.736504    1.380509
   61.C         2.999914   -2.866880   -0.638215
   62.C         1.886549   -3.434961   -1.329748
   63.C         3.516453   -1.756290   -1.387903
   64.C         3.993345   -0.526037    0.729609
   65.C         3.988527   -0.567214   -0.738490
   66.C        -0.647850   -3.158189   -2.582615
   67.C         1.740485   -2.713062   -2.582112
   68.C         2.760057   -1.678123   -2.605941
   69.C         3.848627    0.657513   -1.458647
   70.C         3.099213    0.733375   -2.692792
   71.C         2.505979   -0.435876   -3.242279
   72.C         1.237934   -0.304436   -3.918173
   73.C         0.252093   -1.363231   -4.011098
   74.C         0.560818    0.956980   -3.903989
   75.C         0.485720   -2.581960   -3.251517
   76.C        -1.066608   -0.717947   -4.000995
   77.C        -2.182889   -1.270245   -3.255312
   78.C        -0.849940    0.707187   -3.922818
   79.C        -1.765125    1.611998   -3.276686
   80.C         1.133468    2.123119   -3.292847
   81.N        -0.232290    0.060548   -0.001839
   82.Sc       -0.131140    2.079361   -0.021921
   83.Sc       -0.243458   -0.829451   -1.825576
   84.Sc       -0.173603   -0.773401    1.830933
 <Mar06-2009> <10:56:13>  >>>> CORORT
 <Mar06-2009> <10:56:16>  >>>> FITINT
 <Mar06-2009> <10:56:20>  >>>> CLSMAT
 <Mar06-2009> <10:56:20>  >>>> ORTHON
 <Mar06-2009> <10:56:29>  >>>> GENPT
 <Mar06-2009> <10:56:29>  Acc.Num.Int.=   6.000
 <Mar06-2009> <10:56:30>  Block Length= 128
 <Mar06-2009> <10:56:38>  >>>> PTBAS
 <Mar06-2009> <10:58:16>  >>>> CYCLE
 <Mar06-2009> <10:58:31>    1
 <Mar06-2009> <10:59:26>    2  ErrMat   0.00710778  MaxEl -0.00105745
 <Mar06-2009> <10:59:51>    3  ErrMat   0.00169221  MaxEl -0.00017105
 <Mar06-2009> <11:00:18>    4  ErrMat   0.00349672  MaxEl  0.00035416
 <Mar06-2009> <11:00:44>    5  ErrMat   0.00150546  MaxEl -0.00017105
 <Mar06-2009> <11:01:11>    6  ErrMat   0.00040541  MaxEl  0.00002849
 <Mar06-2009> <11:01:36>    7  ErrMat   0.00026570  MaxEl -0.00002171
 <Mar06-2009> <11:02:02>    8  ErrMat   0.00009818  MaxEl -0.00001195
 <Mar06-2009> <11:02:28>    9  ErrMat   0.00004208  MaxEl  0.00000373
 <Mar06-2009> <11:02:55>   10  ErrMat   0.00001598  MaxEl  0.00000109
 <Mar06-2009> <11:03:20>   11  ErrMat   0.00000754  MaxEl  0.00000095
 <Mar06-2009> <11:03:31>  SCF converged
 <Mar06-2009> <11:03:46>   12  ErrMat   0.00000261  MaxEl -0.00000025
 <Mar06-2009> <11:04:26>  >>>> COREPS
 <Mar06-2009> <11:04:31>  >>>> TOTEN
 <Mar06-2009> <11:08:40>  >>>> POPAN
 <Mar06-2009> <11:08:40>  >>>> DEBYE
 <Mar06-2009> <11:08:43>  >>>> AMETS
 <Mar06-2009> <11:08:49>  >>>> POPUL
 <Mar06-2009> <11:08:59>   Bond Energy LDA     -29.67994450 a.u.
 <Mar06-2009> <11:08:59>   Bond Energy LDA    -807.63238240 eV
 <Mar06-2009> <11:08:59>           + GGA-X     -24.11738006 a.u.
 <Mar06-2009> <11:08:59>           + GGA-X    -656.26730260 eV
 <Mar06-2009> <11:08:59>          + GGA-XC     -26.53058093 a.u.
 <Mar06-2009> <11:08:59>          + GGA-XC    -721.93383945 eV
 <Mar06-2009> <11:08:59>  >>>> ENHESS
 <Mar06-2009> <11:09:06>  >>>> FITINT
 <Mar06-2009> <11:12:14>  >>>> FIT_A1_COEF01
 <Mar06-2009> <13:07:45>  >>>> FITINT
 <Mar06-2009> <13:18:57>  === NUCLEUS:     1
 <Mar06-2009> <14:01:29>  === NUCLEUS:     2
 <Mar06-2009> <14:32:40>  === NUCLEUS:     3
 <Mar06-2009> <15:03:48>  === NUCLEUS:     4
 <Mar06-2009> <15:34:53>  === NUCLEUS:     5
 <Mar06-2009> <16:06:02>  === NUCLEUS:     6
 <Mar06-2009> <16:37:14>  === NUCLEUS:     7
 <Mar06-2009> <17:09:27>  === NUCLEUS:     8
 <Mar06-2009> <17:41:10>  === NUCLEUS:     9
 <Mar06-2009> <18:12:49>  === NUCLEUS:    10
 <Mar06-2009> <18:44:01>  === NUCLEUS:    11
 <Mar06-2009> <19:15:18>  === NUCLEUS:    12
 <Mar06-2009> <19:46:30>  === NUCLEUS:    13
 <Mar06-2009> <20:17:47>  === NUCLEUS:    14
 <Mar06-2009> <20:49:33>  === NUCLEUS:    15
 <Mar06-2009> <21:21:12>  === NUCLEUS:    16
 <Mar06-2009> <21:52:20>  === NUCLEUS:    17
 <Mar06-2009> <22:23:35>  === NUCLEUS:    18
 <Mar06-2009> <22:54:55>  === NUCLEUS:    19
 <Mar06-2009> <23:26:46>  === NUCLEUS:    20
 <Mar06-2009> <23:58:32>  === NUCLEUS:    21
 <Mar07-2009> <00:29:44>  === NUCLEUS:    22
 <Mar07-2009> <01:01:03>  === NUCLEUS:    23
 <Mar07-2009> <01:32:29>  === NUCLEUS:    24
 <Mar07-2009> <02:03:45>  === NUCLEUS:    25
 <Mar07-2009> <02:34:59>  === NUCLEUS:    26
 <Mar07-2009> <03:06:15>  === NUCLEUS:    27
 <Mar07-2009> <03:37:29>  === NUCLEUS:    28
 <Mar07-2009> <04:08:36>  === NUCLEUS:    29
 <Mar07-2009> <04:40:27>  === NUCLEUS:    30
 <Mar07-2009> <05:11:40>  === NUCLEUS:    31
 <Mar07-2009> <05:43:26>  === NUCLEUS:    32
 <Mar07-2009> <06:14:31>  === NUCLEUS:    33
 <Mar07-2009> <06:45:49>  === NUCLEUS:    34
 <Mar07-2009> <07:17:09>  === NUCLEUS:    35
 <Mar07-2009> <07:48:22>  === NUCLEUS:    36
 <Mar07-2009> <08:20:11>  === NUCLEUS:    37
 <Mar07-2009> <08:51:30>  === NUCLEUS:    38
 <Mar07-2009> <09:23:25>  === NUCLEUS:    39
 <Mar07-2009> <09:55:19>  === NUCLEUS:    40
 <Mar07-2009> <10:26:42>  === NUCLEUS:    41
 <Mar07-2009> <10:58:01>  === NUCLEUS:    42
 <Mar07-2009> <11:29:51>  === NUCLEUS:    43
 <Mar07-2009> <12:01:13>  === NUCLEUS:    44
 <Mar07-2009> <12:32:27>  === NUCLEUS:    45
 <Mar07-2009> <13:04:20>  === NUCLEUS:    46
 <Mar07-2009> <13:35:42>  === NUCLEUS:    47
 <Mar07-2009> <14:07:02>  === NUCLEUS:    48
 <Mar07-2009> <14:38:35>  === NUCLEUS:    49
 <Mar07-2009> <15:10:00>  === NUCLEUS:    50
 <Mar07-2009> <15:41:54>  === NUCLEUS:    51
 <Mar07-2009> <16:13:09>  === NUCLEUS:    52
 <Mar07-2009> <16:44:36>  === NUCLEUS:    53
 <Mar07-2009> <17:16:36>  === NUCLEUS:    54
 <Mar07-2009> <17:48:33>  === NUCLEUS:    55
 <Mar07-2009> <18:19:57>  === NUCLEUS:    56
 <Mar07-2009> <18:52:26>  === NUCLEUS:    57
 <Mar07-2009> <19:23:49>  === NUCLEUS:    58
 <Mar07-2009> <19:55:41>  === NUCLEUS:    59
 <Mar07-2009> <20:27:36>  === NUCLEUS:    60
 <Mar07-2009> <20:58:57>  === NUCLEUS:    61
 <Mar07-2009> <21:30:24>  === NUCLEUS:    62
 <Mar07-2009> <22:02:29>  === NUCLEUS:    63
 <Mar07-2009> <22:34:16>  === NUCLEUS:    64
 <Mar07-2009> <23:06:50>  === NUCLEUS:    65
 <Mar07-2009> <23:38:23>  === NUCLEUS:    66
 <Mar08-2009> <00:11:03>  === NUCLEUS:    67
 <Mar08-2009> <00:43:05>  === NUCLEUS:    68
 <Mar08-2009> <01:14:35>  === NUCLEUS:    69
 <Mar08-2009> <01:46:03>  === NUCLEUS:    70
 <Mar08-2009> <02:18:09>  === NUCLEUS:    71
 <Mar08-2009> <02:50:08>  === NUCLEUS:    72
 <Mar08-2009> <03:22:25>  === NUCLEUS:    73
 <Mar08-2009> <03:54:09>  === NUCLEUS:    74
 <Mar08-2009> <04:26:00>  === NUCLEUS:    75
 <Mar08-2009> <04:58:10>  === NUCLEUS:    76
 <Mar08-2009> <05:29:44>  === NUCLEUS:    77
 <Mar08-2009> <06:01:55>  === NUCLEUS:    78
 <Mar08-2009> <06:34:59>  === NUCLEUS:    79
 <Mar08-2009> <07:06:34>  === NUCLEUS:    80
 <Mar08-2009> <07:38:16>  === NUCLEUS:    81
 <Mar08-2009> <08:09:51>  === NUCLEUS:    82
 <Mar08-2009> <08:42:45>  === NUCLEUS:    83
 <Mar08-2009> <09:16:11>  === NUCLEUS:    84
 <Mar08-2009> <09:49:40>  >>>> CALC_HESS_PMAT
 <Mar08-2009> <12:25:17>  >>>> CALC_HESS_WMAT
 <Mar08-2009> <13:30:03>  NORMAL TERMINATION
 <Mar08-2009> <13:30:03>  END
