The job is running on maginet-ii183


 *******************************************************************************
 *                                                                             *
 *  -------------------------------------                                      *
 *   Amsterdam Density Functional  (ADF)         2007.01   August 20, 2007     *
 *  -------------------------------------                                      *
 *                                               Build 200807221915            *
 *                                                                             *
 *                                                                             *
 *                            =====================                            *
 *                            |                   |                            *
 *                            |     D I R A C     |                            *
 *                            |                   |                            *
 *                            =====================                            *
 *                                                                             *
 *                                                                             *
 *   Online information and documentation:  http://www.scm.com                 *
 *   E-mail:  support@scm.com   info@scm.com                                   *
 *                                                                             *
 *   Scientific publications using ADF results must be properly referenced     *
 *   See the User Manuals (or the web site) for recommended citations          *
 *   The terms and conditions of the End User License Agreement apply to       *
 *   the use of ADF, http://www.scm.com/Sales/LicAgreement.html                *
 *                                                                             *
 *****************************  pentium64_linux  *******************************
 
 DIRAC 2007.01  RunTime: Feb21-2010 17:31:06
1
 CARBON ATOM 1s CORE RELATIVISTIC                            
 N J RN H ZN XION ANUC 
 1000    4100.00000000 54.23252343  6.00000000  0.00000000   12.000000
  PH   PHI     EPS        DEL        DELRVR
  0.30  0.30     2500.00  0.00001000  0.00001000
 IDIRC  NC1  NDEBU NPRIN  IPUN IRCOR IWCOR
   1   300     0     0     0     0     1
   XALPHA      XLATTER      RNUC
  0.70000000  0.00000000  0.00000000
   XN   XL   XJ      XE          XZ      XDELL
  1.0  0.0  0.5      -5.000       2.000     0.00000
  2.0  0.0  0.5      -1.000       2.000     0.00000
  2.0  1.0  0.5      -1.000       2.000     0.00000
  2.0  1.0  1.5      -1.000       0.000     0.00000
 ICORP=  0  NPCL=  0  DEMP=0.00  PEPS=0.000000
 R(1)=  0.1000000E-05 D=  0.1018610E+01 RNUC=  0.0000000E+00
 converged at cycle   26  DENSITY AVERAGING    0.2400
  MAXIMUM ERROR IN R.V(R) IS   0.53760002E-05
 Q,EY,EV,EZ,ESUM,ETOT,RHO  0.600000E+01 -0.610128E+01 -0.585189E+02 -0.876464E+02 -0.211985E+02 -0.372876E+02  0.162637E-08


 DIRAC CALCULATION
1                    CARBON ATOM 1s CORE RELATIVISTIC


 EXCHANGE COEFFICIENT=  0.7000000           TAIL CORRECTION=  0.           NUCLEAR RADIUS=  0.000E+00
0                       ORBITAL    N    L    J     ELECTRONS     EIGENVALUE                DELTA OF EIGENV.

                          1S1/2  1.0  0.0  0.5     2.000       -0.9959611E+01                 0.1312909E-04
                          2S1/2  2.0  0.0  0.5     2.000       -0.4708544E+00                 0.9462392E-06
                          2P1/2  2.0  1.0  0.5     2.000       -0.1687898E+00                 0.7283254E-06
                          2P3/2  2.0  1.0  1.5     0.000       -0.1684648E+00                 0.7285247E-06


                                        NUCLEAR CHARGE=    6.000000
                            INTEGRAL OF CHARGE DENSITY=    6.000000
                           SUM OF THE ORBITAL ENERGIES=    -21.1985
                                          TOTAL ENERGY=    -37.2876
                                        KINETIC ENERGY=     37.3204
                             NUCLEAR ATTRACTION ENERGY=    -87.6464
                             ELECTRON REPULSION ENERGY=     17.6144
                                       EXCHANGE ENERGY=     -4.5760

 *******************************************************************************

                             D I R A C   E X I T
 NORMAL TERMINATION



 =================
 Timing Statistics
 =================
  
 Total Used :                     CPU=        0.05      System=        0.15     Elapsed=        0.21

 Calls  Section                     ( Mean, Percentage )
 ---------------------------------------------------------------------------------------------------
     2  ><      ................      0.00    0.00             0.00    0.00             0.00    0.00
     1  EXIT PROCEDURE .........      0.05  100.00             0.15  100.00             0.21  100.00


 Currently Open Files (EXIT00)
 ====================

 Unit    Access Format  Status   Type       Ident (file)
 -------------------------------------------------------
   3      SEQ    FORM   TRANSP  NORMAL      LOGFILE
                                          ( logfile )


 Buffered I/O statistics
 =======================
 Memory available:                    536870912
 Number of records fitting in memory:    129055
 Input : 100.0% of                            0  *4k bytes
 Output: 100.0% of                            0  *4k bytes
 Records from serial files evicted:           0
                    others evicted:           0
 Hash table lookups:          0 with          0 conflicts (100.00%)

 ***************************************************************************************************
 (LOGFILE)
 <Feb21-2010> <17:31:06>  DIRAC 2007.01  RunTime: Feb21-2010 17:31:06
 <Feb21-2010> <17:31:06>  NORMAL TERMINATION
 <Feb21-2010> <17:31:07>  END

 *******************************************************************************
 *                                                                             *
 *  -------------------------------------                                      *
 *   Amsterdam Density Functional  (ADF)         2007.01   August 20, 2007     *
 *  -------------------------------------                                      *
 *                                               Build 200807221915            *
 *                                                                             *
 *                                                                             *
 *                            =====================                            *
 *                            |                   |                            *
 *                            |     D I R A C     |                            *
 *                            |                   |                            *
 *                            =====================                            *
 *                                                                             *
 *                                                                             *
 *   Online information and documentation:  http://www.scm.com                 *
 *   E-mail:  support@scm.com   info@scm.com                                   *
 *                                                                             *
 *   Scientific publications using ADF results must be properly referenced     *
 *   See the User Manuals (or the web site) for recommended citations          *
 *   The terms and conditions of the End User License Agreement apply to       *
 *   the use of ADF, http://www.scm.com/Sales/LicAgreement.html                *
 *                                                                             *
 *****************************  pentium64_linux  *******************************
 
 DIRAC 2007.01  RunTime: Feb21-2010 17:31:07
1
 SULPHUR ATOM 2p CORE RELATIVISTIC                           
 N J RN H ZN XION ANUC 
 1000    7100.00000000 54.23252343 16.00000000  0.00000000   32.064000
  PH   PHI     EPS        DEL        DELRVR
  0.30  0.30     2500.00  0.00001000  0.00001000
 IDIRC  NC1  NDEBU NPRIN  IPUN IRCOR IWCOR
   1   300     0     0     0     0     4
   XALPHA      XLATTER      RNUC
  0.70000000  0.00000000  0.00000000
   XN   XL   XJ      XE          XZ      XDELL
  1.0  0.0  0.5    -600.000       2.000     0.00000
  2.0  0.0  0.5     -75.000       2.000     0.00000
  2.0  1.0  0.5     -70.000       2.000     0.00000
  2.0  1.0  1.5     -70.000       4.000     0.00000
  3.0  0.0  0.5     -25.000       2.000     0.00000
  3.0  1.0  0.5      -0.250       2.000     0.00000
  3.0  1.0  1.5      -0.250       2.000     0.00000
 ICORP=  0  NPCL=  0  DEMP=0.00  PEPS=0.000000
 R(1)=  0.1000000E-05 D=  0.1018610E+01 RNUC=  0.0000000E+00
 converged at cycle   32  DENSITY AVERAGING    0.3000
  MAXIMUM ERROR IN R.V(R) IS   0.75535930E-05
 Q,EY,EV,EZ,ESUM,ETOT,RHO  0.160000E+02 -0.322118E+02 -0.628554E+03 -0.950912E+03 -0.228522E+03 -0.397754E+03  0.389941E-07


 DIRAC CALCULATION
1                    SULPHUR ATOM 2p CORE RELATIVISTIC


 EXCHANGE COEFFICIENT=  0.7000000           TAIL CORRECTION=  0.           NUCLEAR RADIUS=  0.000E+00
0                       ORBITAL    N    L    J     ELECTRONS     EIGENVALUE                DELTA OF EIGENV.

                          1S1/2  1.0  0.0  0.5     2.000       -0.8822261E+02                 0.4362846E-04
                          2S1/2  2.0  0.0  0.5     2.000       -0.7739916E+01                 0.6477015E-05
                          2P1/2  2.0  1.0  0.5     2.000       -0.5775821E+01                 0.8305937E-05
                          2P3/2  2.0  1.0  1.5     4.000       -0.5729258E+01                 0.8323237E-05
                          3S1/2  3.0  0.0  0.5     2.000       -0.6035002E+00                 0.7298959E-06
                          3P1/2  3.0  1.0  0.5     2.000       -0.2319618E+00                 0.7271669E-06
                          3P3/2  3.0  1.0  1.5     2.000       -0.2288150E+00                 0.7291766E-06


                                        NUCLEAR CHARGE=   16.000000
                            INTEGRAL OF CHARGE DENSITY=   16.000000
                           SUM OF THE ORBITAL ENERGIES=   -228.5223
                                          TOTAL ENERGY=   -397.7542
                                        KINETIC ENERGY=    400.0322
                             NUCLEAR ATTRACTION ENERGY=   -950.9123
                             ELECTRON REPULSION ENERGY=    177.2848
                                       EXCHANGE ENERGY=    -24.1588

 *******************************************************************************

                             D I R A C   E X I T
 NORMAL TERMINATION



 =================
 Timing Statistics
 =================
  
 Total Used :                     CPU=        0.08      System=        0.15     Elapsed=        0.24

 Calls  Section                     ( Mean, Percentage )
 ---------------------------------------------------------------------------------------------------
     2  ><      ................      0.00    0.00             0.00    0.00             0.00    0.01
     1  EXIT PROCEDURE .........      0.08  100.00             0.15  100.00             0.24   99.99


 Currently Open Files (EXIT00)
 ====================

 Unit    Access Format  Status   Type       Ident (file)
 -------------------------------------------------------
   3      SEQ    FORM   TRANSP  NORMAL      LOGFILE
                                          ( logfile )


 Buffered I/O statistics
 =======================
 Memory available:                    536870912
 Number of records fitting in memory:    129055
 Input : 100.0% of                            0  *4k bytes
 Output: 100.0% of                            0  *4k bytes
 Records from serial files evicted:           0
                    others evicted:           0
 Hash table lookups:          0 with          0 conflicts (100.00%)

 ***************************************************************************************************
 (LOGFILE)
 <Feb21-2010> <17:31:06>  DIRAC 2007.01  RunTime: Feb21-2010 17:31:06
 <Feb21-2010> <17:31:06>  NORMAL TERMINATION
 <Feb21-2010> <17:31:07>  END
 <Feb21-2010> <17:31:07>  DIRAC 2007.01  RunTime: Feb21-2010 17:31:07
 <Feb21-2010> <17:31:07>  NORMAL TERMINATION
 <Feb21-2010> <17:31:07>  END

 *******************************************************************************
 *                                                                             *
 *  -------------------------------------                                      *
 *   Amsterdam Density Functional  (ADF)         2007.01   August 20, 2007     *
 *  -------------------------------------                                      *
 *                                               Build 200807221915            *
 *                                                                             *
 *                                                                             *
 *                            =====================                            *
 *                            |                   |                            *
 *                            |     D I R A C     |                            *
 *                            |                   |                            *
 *                            =====================                            *
 *                                                                             *
 *                                                                             *
 *   Online information and documentation:  http://www.scm.com                 *
 *   E-mail:  support@scm.com   info@scm.com                                   *
 *                                                                             *
 *   Scientific publications using ADF results must be properly referenced     *
 *   See the User Manuals (or the web site) for recommended citations          *
 *   The terms and conditions of the End User License Agreement apply to       *
 *   the use of ADF, http://www.scm.com/Sales/LicAgreement.html                *
 *                                                                             *
 *****************************  pentium64_linux  *******************************
 
 DIRAC 2007.01  RunTime: Feb21-2010 17:31:07
1
 SCANDIUM ATOM 2p CORE RELATIVISTIC                          
 N J RN H ZN XION ANUC 
 1000   10100.00000000 54.23252343 21.00000000  0.00000000   44.956000
  PH   PHI     EPS        DEL        DELRVR
  0.30  0.30     2500.00  0.00001000  0.00001000
 IDIRC  NC1  NDEBU NPRIN  IPUN IRCOR IWCOR
   1   300     0     0     0     0     4
   XALPHA      XLATTER      RNUC
  0.70000000  0.00000000  0.00000000
   XN   XL   XJ      XE          XZ      XDELL
  1.0  0.0  0.5    -750.000       2.000     0.00000
  2.0  0.0  0.5    -200.000       2.000     0.00000
  2.0  1.0  0.5    -175.000       2.000     0.00000
  2.0  1.0  1.5    -175.000       4.000     0.00000
  3.0  0.0  0.5     -75.000       2.000     0.00000
  3.0  1.0  0.5     -50.000       2.000     0.00000
  3.0  1.0  1.5     -50.000       4.000     0.00000
  3.0  2.0  1.5      -0.500       1.000     0.00000
  3.0  2.0  2.5      -0.500       0.000     0.00000
  4.0  0.0  0.5      -0.250       2.000     0.00000
 ICORP=  0  NPCL=  0  DEMP=0.00  PEPS=0.000000
 R(1)=  0.1000000E-05 D=  0.1018610E+01 RNUC=  0.0000000E+00
 converged at cycle   45  DENSITY AVERAGING    0.1536
  MAXIMUM ERROR IN R.V(R) IS   0.72222662E-05
 Q,EY,EV,EZ,ESUM,ETOT,RHO  0.210000E+02 -0.496537E+02 -0.122456E+04 -0.181514E+04 -0.454723E+03 -0.762425E+03  0.100539E-06


 DIRAC CALCULATION
1                    SCANDIUM ATOM 2p CORE RELATIVISTIC


 EXCHANGE COEFFICIENT=  0.7000000           TAIL CORRECTION=  0.           NUCLEAR RADIUS=  0.000E+00
0                       ORBITAL    N    L    J     ELECTRONS     EIGENVALUE                DELTA OF EIGENV.

                          1S1/2  1.0  0.0  0.5     2.000       -0.1613445E+03                 0.3221976E-04
                          2S1/2  2.0  0.0  0.5     2.000       -0.1739572E+02                 0.1950105E-04
                          2P1/2  2.0  1.0  0.5     2.000       -0.1439093E+02                 0.2118944E-04
                          2P3/2  2.0  1.0  1.5     4.000       -0.1422008E+02                 0.2108653E-04
                          3S1/2  3.0  0.0  0.5     2.000       -0.1985761E+01                 0.7411407E-05
                          3P1/2  3.0  1.0  0.5     2.000       -0.1220343E+01                 0.6922421E-05
                          3P3/2  3.0  1.0  1.5     4.000       -0.1201293E+01                 0.6860765E-05
                          3D3/2  3.0  2.0  1.5     1.000       -0.9814002E-01                 0.4271925E-05
                          3D5/2  3.0  2.0  2.5     0.000       -0.9701059E-01                 0.4251488E-05
                          4S1/2  4.0  0.0  0.5     2.000       -0.1322763E+00                 0.9096974E-06


                                        NUCLEAR CHARGE=   21.000000
                            INTEGRAL OF CHARGE DENSITY=   21.000000
                           SUM OF THE ORBITAL ENERGIES=   -454.7227
                                          TOTAL ENERGY=   -762.4252
                                        KINETIC ENERGY=    769.8374
                             NUCLEAR ATTRACTION ENERGY=  -1815.1382
                             ELECTRON REPULSION ENERGY=    320.1160
                                       EXCHANGE ENERGY=    -37.2403

 *******************************************************************************

                             D I R A C   E X I T
 NORMAL TERMINATION



 =================
 Timing Statistics
 =================
  
 Total Used :                     CPU=        0.12      System=        0.15     Elapsed=        0.27

 Calls  Section                     ( Mean, Percentage )
 ---------------------------------------------------------------------------------------------------
     2  ><      ................      0.00    0.00             0.00    0.00             0.00    0.00
     1  EXIT PROCEDURE .........      0.12  100.00             0.15  100.00             0.27  100.00


 Currently Open Files (EXIT00)
 ====================

 Unit    Access Format  Status   Type       Ident (file)
 -------------------------------------------------------
   3      SEQ    FORM   TRANSP  NORMAL      LOGFILE
                                          ( logfile )


 Buffered I/O statistics
 =======================
 Memory available:                    536870912
 Number of records fitting in memory:    129055
 Input : 100.0% of                            0  *4k bytes
 Output: 100.0% of                            0  *4k bytes
 Records from serial files evicted:           0
                    others evicted:           0
 Hash table lookups:          0 with          0 conflicts (100.00%)

 ***************************************************************************************************
 (LOGFILE)
 <Feb21-2010> <17:31:06>  DIRAC 2007.01  RunTime: Feb21-2010 17:31:06
 <Feb21-2010> <17:31:06>  NORMAL TERMINATION
 <Feb21-2010> <17:31:07>  END
 <Feb21-2010> <17:31:07>  DIRAC 2007.01  RunTime: Feb21-2010 17:31:07
 <Feb21-2010> <17:31:07>  NORMAL TERMINATION
 <Feb21-2010> <17:31:07>  END
 <Feb21-2010> <17:31:07>  DIRAC 2007.01  RunTime: Feb21-2010 17:31:07
 <Feb21-2010> <17:31:07>  NORMAL TERMINATION
 <Feb21-2010> <17:31:08>  END
(INPUT FILE)

create  C  /usr/local/adf2007.01/atomicdata/ZORA/TZP/C.1s
xc
GGA gradients becke perdew
end
relativistic scalar zora
corepotentials t12rel   <++
C    1
end
end input

 *******************************************************************************
 *                                                                             *
 *  -------------------------------------                                      *
 *   Amsterdam Density Functional  (ADF)         2007.01   August 20, 2007     *
 *  -------------------------------------                                      *
 *                                               Build 200807221915            *
 *                                                                             *
 *                                                                             *
 *                              =================                              *
 *                              |               |                              *
 *                              |     A D F     |                              *
 *                              |               |                              *
 *                              =================                              *
 *                                                                             *
 *                                                                             *
 *   Online information and documentation:  http://www.scm.com                 *
 *   E-mail:  support@scm.com   info@scm.com                                   *
 *                                                                             *
 *   Scientific publications using ADF results must be properly referenced     *
 *   See the User Manuals (or the web site) for recommended citations          *
 *   The terms and conditions of the End User License Agreement apply to       *
 *   the use of ADF, http://www.scm.com/Sales/LicAgreement.html                *
 *                                                                             *
 *****************************  pentium64_linux  *******************************
 
 ADF 2007.01  RunTime: Feb21-2010 17:31:08
 Carbon (TZP, 1s frozen)



 ===========================
 A T T A C H E D   F I L E S
 ===========================
  
 CREATE - Data File:    /usr/local/adf2007.01/atomicdata/ZORA/TZP/C.1s
                        Carbon (TZP, 1s frozen)
 Core Potentials:
         file : t12rel



 ===============================
 M O D E L   P A R A M E T E R S
 ===============================
  
 DENSITY FUNCTIONAL POTENTIAL (scf)
    LDA:                               VWN                                      
    Gradient Corrections:              Becke88 Perdew86                        == Not Default ==

 SPIN  (restricted / unrestr.)
    Molecule:                          Restricted                               

 OTHER ASPECTS
    Relativistic Corrections:          scalar (ZORA,SAPA)                       *** SPECIAL ***
    Core Treatment:                    Frozen Orbital(s)                        

    Electric Field:                    ---                                      

    Hyperfine or Zeeman Interaction:   ---                                      



 =====================================
 S Y M M E T R Y ,   E L E C T R O N S
 =====================================
  
 Symmetry: ATOM

 Irreducible Representations, including subspecies
 -------------------------------------------------
 S
 P:x  P:y  P:z
 D:z2  D:x2-y2  D:xy  D:xz  D:yz
 F:z3  F:z  F:xyz  F:z2x  F:z2y  F:x  F:y


 Configuration of Valence Electrons
 ==================================

          Occupation Numbers
          -------------------------------------------------
 S        2
 P        2
 D        0
 F        0
          -------------------------------------------------

 Total:   4

 Net Charge: 0 (Nuclei minus Electrons)

 Preset values for MO occupations will be applied through SCF cycle no. 1000000
 Thereafter, the program will assign electrons to MOs that are spatially
 similar to the occupied MOs in a "reference" cycle ("KeepOrbitals").
 The reference cycle is always the PREVIOUS cycle: it will evolve with
 the SCF procedure.



 ================================
 (Slater-type)  F U N C T I O N S  ***  (Basis and Fit)  ***
 ================================
  

 Atom Type    1  (C)
 ==============

 Valence Basis Sets:   8
 -----------------------
   1 S    5.400000
   2 S    1.280000
   2 S    2.100000
   2 S    4.600000
   2 P    0.820000
   2 P    1.480000
   2 P    2.940000
   3 D    2.200000

 Frozen Core Shells
 ------------------
    S:  1

 Charge Fitting Sets (for the computation of the Coulomb Potential):  20
 -----------------------------------------------------------------------
   1 S   10.800000
   2 S   11.590000
   2 S    7.590000
   2 S    4.970000
   3 S    4.790000
   3 S    3.350000
   3 S    2.340000
   3 S    1.640000
   2 P    8.340000
   2 P    5.140000
   3 P    4.670000
   3 P    3.100000
   3 P    2.060000
   3 D    5.880000
   3 D    3.840000
   3 D    2.510000
   3 D    1.640000
   4 F    5.400000
   4 F    3.550000
   5 G    4.500000


 BAS: List of all Elementary Cartesian Basis Functions
 =====================================================

 The numbering in the list below (to the right of the function characteristics) is referred
 to in print-outs of MO eigenvectors and Mulliken populations in the BAS representation
 (as contrasted to the SFO representation).

 Notes:
 1. The functions are characterized by a polynomial prefactor (powers of x,y,z and r) and
    an exponential decay factor alpha.
 2. Since the basis sets are specific for an atom TYPE, the individual functions occur on
    all atoms of that type.
 3. The word 'Core' in the left margin signals that it is a Core Function (CF) : not a
    degree of freedom in the valence set, but only used to ensure orthogonalization of
    the other valence basis functions on the frozen Core Orbitals.


 (power of) X  Y  Z  R     Alpha  on Atom
            ==========     =====     ==========

 C                                    1
                                  ---------------------------------------------------------------------------
    Core    0  0  0  0     5.400      1
            0  0  0  1     1.280      2
            0  0  0  1     2.100      3
            0  0  0  1     4.600      4
            1  0  0  0     0.820      5
            0  1  0  0     0.820      6
            0  0  1  0     0.820      7
            1  0  0  0     1.480      8
            0  1  0  0     1.480      9
            0  0  1  0     1.480     10
            1  0  0  0     2.940     11
            0  1  0  0     2.940     12
            0  0  1  0     2.940     13
            2  0  0  0     2.200     14
            1  1  0  0     2.200     15
            1  0  1  0     2.200     16
            0  2  0  0     2.200     17
            0  1  1  0     2.200     18
            0  0  2  0     2.200     19


 BAS: List of all Elementary Cartesian Basis Functions
 =====================================================

 The numbering in the list below (to the right of the function characteristics) is referred
 to in print-outs of MO eigenvectors and Mulliken populations in the BAS representation
 (as contrasted to the SFO representation).

 Notes:
 1. The functions are characterized by a polynomial prefactor (powers of x,y,z and r) and
    an exponential decay factor alpha.
 2. Since the basis sets are specific for an atom TYPE, the individual functions occur on
    all atoms of that type.
 3. The word 'Core' in the left margin signals that it is a Core Function (CF) : not a
    degree of freedom in the valence set, but only used to ensure orthogonalization of
    the other valence basis functions on the frozen Core Orbitals.


 (power of) X  Y  Z  R     Alpha  on Atom
            ==========     =====     ==========

 C                                    1
                                  ---------------------------------------------------------------------------
    Core    0  0  0  0     5.400      1
            0  0  0  1     1.280      2
            0  0  0  1     2.100      3
            0  0  0  1     4.600      4
            1  0  0  0     0.820      5
            0  1  0  0     0.820      6
            0  0  1  0     0.820      7
            1  0  0  0     1.480      8
            0  1  0  0     1.480      9
            0  0  1  0     1.480     10
            1  0  0  0     2.940     11
            0  1  0  0     2.940     12
            0  0  1  0     2.940     13
            2  0  0  0     2.200     14
            1  1  0  0     2.200     15
            1  0  1  0     2.200     16
            0  2  0  0     2.200     17
            0  1  1  0     2.200     18
            0  0  2  0     2.200     19
1
 ***************************************************************************************************



                                              ***********************
                                              *  T E C H N I C A L  *
                                              ***********************
  



 =============================================================
 P A R A L L E L I Z A T I O N  and  V E C T O R I Z A T I O N
 =============================================================
  
 Nr of parallel processes:                                1
 Internal max. (compile-time) nr of processes:          128
 Maximum vector length in NumInt loops:                 128



 ===============
 I O  vs.  C P U  ***  (store numerical data on disk or recalculate)  ***
 ===============
  
 Basis functions:   recalculate when needed
 Fit functions:     recalculate when needed

 IO buffersize (Mb):                                    512.000000



 =====================
 S C F   U P D A T E S
 =====================
  
 Max. nr. of cycles:                               100
 Convergence criterion:                              0.0000000100
   secondary criterion:                              0.0000000100

 Mix parameter (when DIIS does not apply):           0.2000000000
 Special mix parameter for the first cycle:          1.0000000000


 DIIS (Direct Inversion in Iteration Space)
    Replace damping when SCF Error is below:         0.5000000000
    Apply anyway after SCF cycle:
                                                     5
    (Max.) nr. of expansion vectors:                10

    Upperbound on expansion coefficients:            5.0000000000
    (when exceeded, IterationSpace is re-built)
    2nd Upperbound on coefficients:                 25.0000000000
    (when exceeded, simple damping will be used)
 Automatic ElectronSmearing (in case of problematic SCF convergence) disabled



 =================
 P R E C I S I O N  ***  (General: NumInt, NeglectFunctionTails, ...)  ***
 =================
  

 NumInt:           Target precision:                10.0000000000
 -------           Initial precision:               10.0000000000
                   Min. precision (optimization):   10.0000000000

 Neglect Functions:          Basis functions:        0.1000000000E-11
 ------------------          Fit functions:          0.1000000000E-11



 ===========================
 L I N E A R   S C A L I N G
 ===========================
  

 Cut-off radii density fit:                        0.1000000000E-13
 Overlap cut-off criterion AO matrix elements:     0.1000000000E-11
 Cut-offs for Coulomb potential and fitted density:0.1000000000E-13
 Cut-off criterion for Coulomb multipole terms:    0.1000000000E-13
1
 ***************************************************************************************************



                                            ***************************
                                            *  C O M P U T A T I O N  *
                                            ***************************
  

 Number of elements of the density matrix on this node (used, total):       190       190



 ====================================================
 Numerical Integration : Voronoi Polyhedra (Te Velde)  ***  (parameters, tests)  ***
 ====================================================
  
 General Accuracy Parameter :                         10.00

 Symmetry used in the points section:  ATOM  


 Summary of the Symmetry Unique Points:
 --------------------------------------
    Nr. of used Symmetry Operators                     1

    Points in the Atomic Spheres                      48
    Points in the Atomic Polyhedra                     0
    Points in the Outer Region                         0
    ----------------------------------------------------
    Total                                             48

    Sum of Weights                                 58501.056183

 Total nr. of points:         48
 Nr. of blocks:                1
 Block length:                48
 Nr. of dummy points:          0


 Test of Precision of the Numerical Integration Grid
 ===================================================

 Integral of the Total Core Density:                   1.99999980245945
 Relative Error:                                      -9.877E-08



 =====
 S C F
 =====
  

 CYCLE    1
 orbitals (Q,E):
 ---------------
 S :1...3            ( 2.00    -0.5142)  ( 0.00     0.4261)  ( 0.00     9.9211)
 P :1...3            ( 2.00    -0.2021)  ( 0.00     0.1712)  ( 0.00     2.0182)
 D :1...1            ( 0.00     1.2287)

 CYCLE    2
 d-Pmat  mean:  0.25E-02
 imax=      3: -0.12E-01
 orbitals (Q,E):
 ---------------
 S :1...2            ( 2.00    -0.5089)  ( 0.00     0.4300)
 P :1...2            ( 2.00    -0.1972)  ( 0.00     0.1738)
 D :1...1            ( 0.00     1.2337)

 CYCLE    3
 d-Pmat  mean:  0.12E-02
 imax=      3:  0.57E-02
 orbitals (Q,E):
 ---------------
 S :1...2            ( 2.00    -0.5112)  ( 0.00     0.4284)
 P :1...2            ( 2.00    -0.1993)  ( 0.00     0.1727)
 D :1...1            ( 0.00     1.2316)

 CYCLE    4
 d-Pmat  mean:  0.10E-04
 imax=      3: -0.50E-04
 orbitals (Q,E):
 ---------------
 S :1...2            ( 2.00    -0.5112)  ( 0.00     0.4284)
 P :1...2            ( 2.00    -0.1992)  ( 0.00     0.1727)
 D :1...1            ( 0.00     1.2316)

 CYCLE    5
 d-Pmat  mean:  0.16E-06
 imax=      3:  0.84E-06
 orbitals (Q,E):
 ---------------
 S :1...2            ( 2.00    -0.5112)  ( 0.00     0.4284)
 P :1...2            ( 2.00    -0.1992)  ( 0.00     0.1727)
 D :1...1            ( 0.00     1.2316)

 CYCLE    6
 d-Pmat  mean:  0.44E-08
 imax=      3:  0.22E-07
 orbitals (Q,E):
 ---------------
 S :1...2            ( 2.00    -0.5112)  ( 0.00     0.4284)
 P :1...2            ( 2.00    -0.1992)  ( 0.00     0.1727)
 D :1...1            ( 0.00     1.2316)

 CYCLE    7
 d-Pmat  mean:  0.49E-10
 imax=      3: -0.24E-09
 orbitals (Q,E):
 ---------------
 S :1...2            ( 2.00    -0.5112)  ( 0.00     0.4284)
 P :1...2            ( 2.00    -0.1992)  ( 0.00     0.1727)
 D :1...1            ( 0.00     1.2316)

 SCF CONVERGED

 CYCLE    8
1
 ***************************************************************************************************



                                                *******************
                                                *  R E S U L T S  *
                                                *******************
  
 *** Setting up for NEW gradients in focky
 *** Using FIT density in focky

 Scaled ZORA Orbital Energies, per Irrep and Spin:
 =================================================
                        Occup              E (au)              E (eV)       Diff (eV) with prev. cycle
                        -----      --------------------        ------       --------------------------
 S
               1        2.000     -0.51118105124057E+00       -13.910              -2.04E-11
               2        0.000      0.42836680884226E+00        11.656
               3        0.000      0.99274831726505E+01       270.141
 P
               1        2.000     -0.19924328097193E+00        -5.422              -1.93E-11
               2        0.000      0.17271611068860E+00         4.700
               3        0.000      0.20224861614786E+01        55.035
 D
               1        0.000      0.12315843718499E+01        33.513


 Partially Occupied:
               1 P                -0.19924328097193E+00
  
 HOMO :        1 S                -0.51118105124057E+00
 LUMO :        2 P                 0.17271611068860E+00
  


 Orbital Energies, all Irreps
 ========================================

 Irrep        no.  (spin)   Occup              E (au)                E (eV)
 ---------------------------------------------------------------------------
 S             1             2.00       -0.51118105124057E+00       -13.9099
 P             1             2.00       -0.19924328097193E+00        -5.4217
 P             2             0.00        0.17271611068860E+00         4.6998
 S             2             0.00        0.42836680884226E+00        11.6565
 D             1             0.00        0.12315843718499E+01        33.5131
 P             3             0.00        0.20224861614786E+01        55.0346
 S             3             0.00        0.99274831726505E+01       270.1406


 Scaled ZORA Orbital Energies of the Core Orbitals:
 ==================================================

 (Note that the atoms are grouped by atomtype, see the labels, and may hence NOT be in input order)

 AtomType  Orbital  Atom                   E (au)                        E (eV)
 --------  -------  ----           --------------------        ----------------
 C           1S        1          -0.10075026584524E+02                -274.155



 =======================================
 M U L L I K E N   P O P U L A T I O N S
 =======================================
  
 The survey below gives for each atom:
 a) the total charge (Z minus electrons)
 b) the net spin polarization (nr of electrons spin-A minus spin-B)
 c) for each spin the atomic electron valence density (integrated) per L-value.

 Atom              Charge    Spin density          S         P         D         F
 ----              ------    ------------       ------    ------    ------    ------
 1 C               0.0000                       2.0000    2.0000    0.0000    0.0000

 Populations of individual BAS functions
 ----------------------------------------
 1 C            0.0007  0.9652  1.0726 -0.0385  0.1720  0.1720  0.1720  0.3911  0.3911  0.3911
                0.1036  0.1036  0.1036  0.0000  0.0000  0.0000  0.0000  0.0000  0.0000

 Gross Charges per Atom (Z minus electrons)
 ==========================================
             0.0000
 Net Total:  0.00000000


 Atom-Atom Population Matrix (off-diagonal elements not doubled)
 ===============================================================

     1 :     4.0000



 =============
 Dipole Moment  ***  (Debye)  ***
 =============
  
 Vector   :         0.00000000      0.00000000      0.00000000
 Magnitude:         0.00000000

 This molecular dipole moment is calculated with analytic integration



 =========================================
 Quadrupole Moment (Buckingham convention)  ***  (a.u.)  ***
 =========================================
  
      quad-xx        quad-xy        quad-xz        quad-yy        quad-yz        quad-zz
      0.00000000     0.00000000     0.00000000     0.00000000     0.00000000     0.00000000

 This molecular quadrupole moment is calculated with analytic integration



 ===============================================================================
 Electrostatic potential at the Nuclei due to valence electrons and other nuclei
 ===============================================================================
  
         Atom                  Potential
         ----                  ---------
     1)   C                   3.38850176
 
 
 ========================
 No memory problems found
 ========================
 
 Maximum number of active allocate calls:         383
 
 *******************************************************************************

                             A D F   E X I T
 NORMAL TERMINATION



 =================
 Timing Statistics
 =================
  
 Total Used :                     CPU=        0.13      System=        0.16     Elapsed=        0.29

 Calls  Section                     ( Mean, Percentage )
 ---------------------------------------------------------------------------------------------------
     3  ><      ................      0.00    0.79             0.00    0.00             0.00    0.24
     1  INIT    ................      0.00    2.38             0.00    0.64             0.01    2.89
     1  GEOMET  ................      0.03   20.63             0.15   96.18             0.18   61.66
     1  INPUTA  ................      0.00    0.79             0.00    0.00             0.00    0.49
     1  MAINSY  ................      0.01    4.76             0.00    0.64             0.01    2.26
     1  SYMFIT  ................      0.00    0.00             0.00    0.00             0.00    0.11
     1  CORORT  ................      0.00    0.00             0.00    0.00             0.00    0.08
     1  SYMORB  ................      0.00    0.79             0.00    0.00             0.00    0.29
     1  FITINT  ................      0.00    3.17             0.00    0.00             0.00    1.30
     1  CLSMAT  ................      0.00    0.00             0.00    0.00             0.00    0.08
     1  ORTHON  ................      0.00    0.79             0.00    0.00             0.00    0.38
     1  ETALOW  ................      0.00    0.79             0.00    0.00             0.00    0.22
     1  GENPT   ................      0.01    4.76             0.00    0.00             0.01    2.23
     1  PTBAS   ................      0.00    2.38             0.00    0.00             0.00    0.83
     8  FOCKY   ................      0.00   31.75             0.00    1.91             0.01   14.81
     8  FOCKTR  ................      0.00    0.79             0.00    0.00             0.00    0.63
     8  FOCKNM  ................      0.00    0.00             0.00    0.00             0.00    0.11
     8  SDIIS   ................      0.00    2.38             0.00    0.00             0.00    0.73
     8  EMERGE  ................      0.00   11.90             0.00    0.00             0.00    5.28
     1  COREPS  ................      0.01    3.97             0.00    0.00             0.00    1.71
     1  POPAN   ................      0.00    1.59             0.00    0.00             0.00    0.74
     1  DEBYE   ................      0.00    0.00             0.00    0.00             0.00    0.13
     1  QMPOT   ................      0.00    2.38             0.00    0.00             0.00    1.16
     1  EXIT PROCEDURE .........      0.00    3.17             0.00    0.64             0.00    1.65


 Currently Open Files (EXIT00)
 ====================

 Unit    Access Format  Status   Type       Ident (file)
 -------------------------------------------------------
   3      SEQ    FORM   TRANSP  NORMAL      LOGFILE
                                          ( logfile )


 Buffered I/O statistics
 =======================
 Memory available:                    536870912
 Number of records fitting in memory:    129055
 Input :   1.4% of                         3185  *4k bytes
 Output:  10.9% of                         1776  *4k bytes
 Records from serial files evicted:           0
                    others evicted:           0
 Hash table lookups:      13465 with          0 conflicts (  0.00%)

 ***************************************************************************************************
 (LOGFILE)
 <Feb21-2010> <17:31:06>  DIRAC 2007.01  RunTime: Feb21-2010 17:31:06
 <Feb21-2010> <17:31:06>  NORMAL TERMINATION
 <Feb21-2010> <17:31:07>  END
 <Feb21-2010> <17:31:07>  DIRAC 2007.01  RunTime: Feb21-2010 17:31:07
 <Feb21-2010> <17:31:07>  NORMAL TERMINATION
 <Feb21-2010> <17:31:07>  END
 <Feb21-2010> <17:31:07>  DIRAC 2007.01  RunTime: Feb21-2010 17:31:07
 <Feb21-2010> <17:31:07>  NORMAL TERMINATION
 <Feb21-2010> <17:31:08>  END
 <Feb21-2010> <17:31:08>  ADF 2007.01  RunTime: Feb21-2010 17:31:08
 <Feb21-2010> <17:31:08>  Carbon (TZP, 1s frozen)
 <Feb21-2010> <17:31:08>  RunType   : CREATE
 <Feb21-2010> <17:31:08>  Net Charge: 0 (Nuclei minus Electrons)
 <Feb21-2010> <17:31:08>  Symmetry  : ATOM
 <Feb21-2010> <17:31:08>  >>>> CORORT
 <Feb21-2010> <17:31:08>  >>>> FITINT
 <Feb21-2010> <17:31:08>  >>>> CLSMAT
 <Feb21-2010> <17:31:08>  >>>> ORTHON
 <Feb21-2010> <17:31:08>  >>>> GENPT
 <Feb21-2010> <17:31:08>  Acc.Num.Int.=  10.000
 <Feb21-2010> <17:31:08>  Block Length=  48
 <Feb21-2010> <17:31:08>  >>>> PTBAS
 <Feb21-2010> <17:31:08>  >>>> CYCLE
 <Feb21-2010> <17:31:08>    1
 <Feb21-2010> <17:31:08>    2  ErrMat   0.00596996  MaxEl -0.00497403
 <Feb21-2010> <17:31:08>    3  ErrMat   0.00476878  MaxEl  0.00390461
 <Feb21-2010> <17:31:08>    4  ErrMat   0.00004089  MaxEl -0.00003294
 <Feb21-2010> <17:31:08>    5  ErrMat   0.00000067  MaxEl  0.00000053
 <Feb21-2010> <17:31:08>    6  ErrMat   0.00000002  MaxEl  0.00000001
 <Feb21-2010> <17:31:08>    7  ErrMat   0.00000000  MaxEl  0.00000000
 <Feb21-2010> <17:31:08>  SCF converged
 <Feb21-2010> <17:31:08>    8  ErrMat   0.00000000  MaxEl  0.00000000
 <Feb21-2010> <17:31:08>   Solutions with partially occupied orbitals may not be
 <Feb21-2010> <17:31:08>   lowest in energy. You might consider lowering the
 <Feb21-2010> <17:31:08>   symmetry in the input and explicitly specifying integer
 <Feb21-2010> <17:31:08>   occupations. In that case always check that you obtain
 <Feb21-2010> <17:31:08>   an aufbau solution.
 <Feb21-2010> <17:31:08>  >>>> COREPS
 <Feb21-2010> <17:31:08>  >>>> POPAN
 <Feb21-2010> <17:31:08>  >>>> DEBYE
 <Feb21-2010> <17:31:08>  NORMAL TERMINATION
 <Feb21-2010> <17:31:08>  END
HP-MPI licensed for SCM.


 Parallel Execution: Process Information
 =======================================

 Actual Number of Tasks running:    16
 The Master (kid 0) runs on host maginet-ii183

  Kid Node                   Speed          Task ID   Status
------------------------------------------------------------------
    0 maginet-ii183             -1                0
    1 maginet-ii183             -1                1
    2 maginet-ii183             -1                2
    3 maginet-ii183             -1                3
    4 maginet-ii183             -1                4
    5 maginet-ii183             -1                5
    6 maginet-ii183             -1                6
    7 maginet-ii183             -1                7
    8 maginet-ii184             -1                8
    9 maginet-ii184             -1                9
   10 maginet-ii184             -1               10
   11 maginet-ii184             -1               11
   12 maginet-ii184             -1               12
   13 maginet-ii184             -1               13
   14 maginet-ii184             -1               14
   15 maginet-ii184             -1               15
 
 Communication Options:
 ----------------------
 Broadcast:            4
 Gather   :            4
 Combine  :            4
 
(INPUT FILE)

create  S  /usr/local/adf2007.01/atomicdata/ZORA/TZP/S.2p
xc
GGA gradients becke perdew
end
relativistic scalar zora
corepotentials t12rel   <++
S    2
end
end input

 *******************************************************************************
 *                                                                             *
 *  -------------------------------------                                      *
 *   Amsterdam Density Functional  (ADF)         2007.01   August 20, 2007     *
 *  -------------------------------------                                      *
 *                                               Build 200807221915            *
 *                                                                             *
 *                                                                             *
 *                              =================                              *
 *                              |               |                              *
 *                              |     A D F     |                              *
 *                              |               |                              *
 *                              =================                              *
 *                                                                             *
 *                                                                             *
 *   Online information and documentation:  http://www.scm.com                 *
 *   E-mail:  support@scm.com   info@scm.com                                   *
 *                                                                             *
 *   Scientific publications using ADF results must be properly referenced     *
 *   See the User Manuals (or the web site) for recommended citations          *
 *   The terms and conditions of the End User License Agreement apply to       *
 *   the use of ADF, http://www.scm.com/Sales/LicAgreement.html                *
 *                                                                             *
 *****************************  pentium64_linux  *******************************
 
 ADF 2007.01  RunTime: Feb21-2010 17:31:11
 Sulphur (TZP, 2p frozen)



 ===========================
 A T T A C H E D   F I L E S
 ===========================
  
 CREATE - Data File:    /usr/local/adf2007.01/atomicdata/ZORA/TZP/S.2p
                        Sulphur (TZP, 2p frozen)
 Core Potentials:
         file : t12rel



 ===============================
 M O D E L   P A R A M E T E R S
 ===============================
  
 DENSITY FUNCTIONAL POTENTIAL (scf)
    LDA:                               VWN                                      
    Gradient Corrections:              Becke88 Perdew86                        == Not Default ==

 SPIN  (restricted / unrestr.)
    Molecule:                          Restricted                               

 OTHER ASPECTS
    Relativistic Corrections:          scalar (ZORA,SAPA)                       *** SPECIAL ***
    Core Treatment:                    Frozen Orbital(s)                        

    Electric Field:                    ---                                      

    Hyperfine or Zeeman Interaction:   ---                                      



 =====================================
 S Y M M E T R Y ,   E L E C T R O N S
 =====================================
  
 Symmetry: ATOM

 Irreducible Representations, including subspecies
 -------------------------------------------------
 S
 P:x  P:y  P:z
 D:z2  D:x2-y2  D:xy  D:xz  D:yz
 F:z3  F:z  F:xyz  F:z2x  F:z2y  F:x  F:y


 Configuration of Valence Electrons
 ==================================

          Occupation Numbers
          -------------------------------------------------
 S        2
 P        4
 D        0
 F        0
          -------------------------------------------------

 Total:   6

 Net Charge: 0 (Nuclei minus Electrons)

 Preset values for MO occupations will be applied through SCF cycle no. 1000000
 Thereafter, the program will assign electrons to MOs that are spatially
 similar to the occupied MOs in a "reference" cycle ("KeepOrbitals").
 The reference cycle is always the PREVIOUS cycle: it will evolve with
 the SCF procedure.



 ================================
 (Slater-type)  F U N C T I O N S  ***  (Basis and Fit)  ***
 ================================
  

 Atom Type    1  (S)
 ==============

 Valence Basis Sets:  10
 -----------------------
   1 S   13.450000
   2 S    5.150000
   2 P    6.150000
   3 S    1.500000
   3 S    2.250000
   3 S    3.400000
   3 P    1.000000
   3 P    1.600000
   3 P    2.450000
   3 D    2.100000

 Frozen Core Shells
 ------------------
    S:  2
    P:  1

 Charge Fitting Sets (for the computation of the Coulomb Potential):  27
 -----------------------------------------------------------------------
   1 S   26.900000
   2 S   26.930000
   2 S   16.640000
   3 S   15.190000
   3 S   10.120000
   4 S    8.950000
   4 S    6.260000
   4 S    4.370000
   5 S    3.820000
   5 S    2.760000
   5 S    2.000000
   2 P   19.700000
   3 P   15.550000
   4 P   12.140000
   4 P    7.550000
   5 P    5.900000
   5 P    3.840000
   5 P    2.500000
   3 D   12.500000
   4 D    9.750000
   4 D    6.060000
   5 D    4.730000
   5 D    3.080000
   5 D    2.000000
   4 F    5.000000
   4 F    3.000000
   5 G    3.620000


 BAS: List of all Elementary Cartesian Basis Functions
 =====================================================

 The numbering in the list below (to the right of the function characteristics) is referred
 to in print-outs of MO eigenvectors and Mulliken populations in the BAS representation
 (as contrasted to the SFO representation).

 Notes:
 1. The functions are characterized by a polynomial prefactor (powers of x,y,z and r) and
    an exponential decay factor alpha.
 2. Since the basis sets are specific for an atom TYPE, the individual functions occur on
    all atoms of that type.
 3. The word 'Core' in the left margin signals that it is a Core Function (CF) : not a
    degree of freedom in the valence set, but only used to ensure orthogonalization of
    the other valence basis functions on the frozen Core Orbitals.


 (power of) X  Y  Z  R     Alpha  on Atom
            ==========     =====     ==========

 S                                    1
                                  ---------------------------------------------------------------------------
    Core    0  0  0  0    13.450      1
    Core    0  0  0  1     5.150      2
    Core    1  0  0  0     6.150      3
    Core    0  1  0  0     6.150      4
    Core    0  0  1  0     6.150      5
            0  0  0  2     1.500      6
            0  0  0  2     2.250      7
            0  0  0  2     3.400      8
            1  0  0  1     1.000      9
            0  1  0  1     1.000     10
            0  0  1  1     1.000     11
            1  0  0  1     1.600     12
            0  1  0  1     1.600     13
            0  0  1  1     1.600     14
            1  0  0  1     2.450     15
            0  1  0  1     2.450     16
            0  0  1  1     2.450     17
            2  0  0  0     2.100     18
            1  1  0  0     2.100     19
            1  0  1  0     2.100     20
            0  2  0  0     2.100     21
            0  1  1  0     2.100     22
            0  0  2  0     2.100     23


 BAS: List of all Elementary Cartesian Basis Functions
 =====================================================

 The numbering in the list below (to the right of the function characteristics) is referred
 to in print-outs of MO eigenvectors and Mulliken populations in the BAS representation
 (as contrasted to the SFO representation).

 Notes:
 1. The functions are characterized by a polynomial prefactor (powers of x,y,z and r) and
    an exponential decay factor alpha.
 2. Since the basis sets are specific for an atom TYPE, the individual functions occur on
    all atoms of that type.
 3. The word 'Core' in the left margin signals that it is a Core Function (CF) : not a
    degree of freedom in the valence set, but only used to ensure orthogonalization of
    the other valence basis functions on the frozen Core Orbitals.


 (power of) X  Y  Z  R     Alpha  on Atom
            ==========     =====     ==========

 S                                    1
                                  ---------------------------------------------------------------------------
    Core    0  0  0  0    13.450      1
    Core    0  0  0  1     5.150      2
    Core    1  0  0  0     6.150      3
    Core    0  1  0  0     6.150      4
    Core    0  0  1  0     6.150      5
            0  0  0  2     1.500      6
            0  0  0  2     2.250      7
            0  0  0  2     3.400      8
            1  0  0  1     1.000      9
            0  1  0  1     1.000     10
            0  0  1  1     1.000     11
            1  0  0  1     1.600     12
            0  1  0  1     1.600     13
            0  0  1  1     1.600     14
            1  0  0  1     2.450     15
            0  1  0  1     2.450     16
            0  0  1  1     2.450     17
            2  0  0  0     2.100     18
            1  1  0  0     2.100     19
            1  0  1  0     2.100     20
            0  2  0  0     2.100     21
            0  1  1  0     2.100     22
            0  0  2  0     2.100     23


 Parallel Execution: Process Information
 =======================================

 Actual Number of Tasks running:    16
 The Master (kid 0) runs on host maginet-ii183

  Kid Node                   Speed          Task ID   Status
------------------------------------------------------------------
    0 maginet-ii183           1000                0
    1 maginet-ii183           1000                1
    2 maginet-ii183           1000                2
    3 maginet-ii183           1000                3
    4 maginet-ii183           1000                4
    5 maginet-ii183           1000                5
    6 maginet-ii183           1000                6
    7 maginet-ii183           1000                7
    8 maginet-ii184           1000                8
    9 maginet-ii184           1000                9
   10 maginet-ii184           1000               10
   11 maginet-ii184           1000               11
   12 maginet-ii184           1000               12
   13 maginet-ii184           1000               13
   14 maginet-ii184           1000               14
   15 maginet-ii184           1000               15
 
 Communication Options:
 ----------------------
 Broadcast:            4
 Gather   :            4
 Combine  :            4
 
1
 ***************************************************************************************************



                                              ***********************
                                              *  T E C H N I C A L  *
                                              ***********************
  



 =============================================================
 P A R A L L E L I Z A T I O N  and  V E C T O R I Z A T I O N
 =============================================================
  
 Nr of parallel processes:                               16
 Internal max. (compile-time) nr of processes:          128
 Maximum vector length in NumInt loops:                 128



 ===============
 I O  vs.  C P U  ***  (store numerical data on disk or recalculate)  ***
 ===============
  
 Basis functions:   recalculate when needed
 Fit functions:     recalculate when needed

 IO buffersize (Mb):                                    512.000000



 =====================
 S C F   U P D A T E S
 =====================
  
 Max. nr. of cycles:                               100
 Convergence criterion:                              0.0000000100
   secondary criterion:                              0.0000000100

 Mix parameter (when DIIS does not apply):           0.2000000000
 Special mix parameter for the first cycle:          1.0000000000


 DIIS (Direct Inversion in Iteration Space)
    Replace damping when SCF Error is below:         0.5000000000
    Apply anyway after SCF cycle:
                                                     5
    (Max.) nr. of expansion vectors:                10

    Upperbound on expansion coefficients:            5.0000000000
    (when exceeded, IterationSpace is re-built)
    2nd Upperbound on coefficients:                 25.0000000000
    (when exceeded, simple damping will be used)
 Automatic ElectronSmearing (in case of problematic SCF convergence) disabled



 =================
 P R E C I S I O N  ***  (General: NumInt, NeglectFunctionTails, ...)  ***
 =================
  

 NumInt:           Target precision:                10.0000000000
 -------           Initial precision:               10.0000000000
                   Min. precision (optimization):   10.0000000000

 Neglect Functions:          Basis functions:        0.1000000000E-11
 ------------------          Fit functions:          0.1000000000E-11



 ===========================
 L I N E A R   S C A L I N G
 ===========================
  

 Cut-off radii density fit:                        0.1000000000E-13
 Overlap cut-off criterion AO matrix elements:     0.1000000000E-11
 Cut-offs for Coulomb potential and fitted density:0.1000000000E-13
 Cut-off criterion for Coulomb multipole terms:    0.1000000000E-13
1
 ***************************************************************************************************



                                            ***************************
                                            *  C O M P U T A T I O N  *
                                            ***************************
  

 Number of elements of the density matrix on this node (used, total):       276       276



 ====================================================
 Numerical Integration : Voronoi Polyhedra (Te Velde)  ***  (parameters, tests)  ***
 ====================================================
  
 General Accuracy Parameter :                         10.00

 Symmetry used in the points section:  ATOM  


 Summary of the Symmetry Unique Points:
 --------------------------------------
    Nr. of used Symmetry Operators                     1

    Points in the Atomic Spheres                      62
    Points in the Atomic Polyhedra                     0
    Points in the Outer Region                         0
    ----------------------------------------------------
    Total                                             62

    Sum of Weights                                 58501.056183

 Total nr. of points:         62
 Nr. of blocks:                1
 Block length:                62
 Nr. of dummy points:          0


 Test of Precision of the Numerical Integration Grid
 ===================================================

 Integral of the Total Core Density:                   9.99999890671327
 Relative Error:                                      -1.093E-07



 =====
 S C F
 =====
  

 CYCLE    1
 orbitals (Q,E):
 ---------------
 S :1...3            ( 2.00    -0.6436)  ( 0.00     0.2167)  ( 0.00     2.8356)
 P :1...3            ( 4.00    -0.2626)  ( 0.00     0.1329)  ( 0.00     1.2063)
 D :1...1            ( 0.00     0.4199)

 CYCLE    2
 d-Pmat  mean:  0.18E-02
 imax=      7: -0.98E-02
 orbitals (Q,E):
 ---------------
 S :1...2            ( 2.00    -0.6376)  ( 0.00     0.2200)
 P :1...2            ( 4.00    -0.2576)  ( 0.00     0.1354)
 D :1...1            ( 0.00     0.4259)

 CYCLE    3
 d-Pmat  mean:  0.77E-03
 imax=      7:  0.39E-02
 orbitals (Q,E):
 ---------------
 S :1...2            ( 2.00    -0.6400)  ( 0.00     0.2188)
 P :1...2            ( 4.00    -0.2596)  ( 0.00     0.1346)
 D :1...1            ( 0.00     0.4235)

 CYCLE    4
 d-Pmat  mean:  0.21E-05
 imax=      7:  0.82E-05
 orbitals (Q,E):
 ---------------
 S :1...2            ( 2.00    -0.6400)  ( 0.00     0.2188)
 P :1...2            ( 4.00    -0.2596)  ( 0.00     0.1346)
 D :1...1            ( 0.00     0.4235)

 CYCLE    5
 d-Pmat  mean:  0.85E-08
 imax=      7:  0.44E-07
 orbitals (Q,E):
 ---------------
 S :1...2            ( 2.00    -0.6400)  ( 0.00     0.2188)
 P :1...2            ( 4.00    -0.2596)  ( 0.00     0.1346)
 D :1...1            ( 0.00     0.4235)

 CYCLE    6
 d-Pmat  mean:  0.35E-09
 imax=      7: -0.24E-08
 orbitals (Q,E):
 ---------------
 S :1...2            ( 2.00    -0.6400)  ( 0.00     0.2188)
 P :1...2            ( 4.00    -0.2596)  ( 0.00     0.1346)
 D :1...1            ( 0.00     0.4235)

 SCF CONVERGED

 CYCLE    7
1
 ***************************************************************************************************



                                                *******************
                                                *  R E S U L T S  *
                                                *******************
  
 *** Setting up for NEW gradients in focky
 *** Using FIT density in focky

 Scaled ZORA Orbital Energies, per Irrep and Spin:
 =================================================
                        Occup              E (au)              E (eV)       Diff (eV) with prev. cycle
                        -----      --------------------        ------       --------------------------
 S
               1        2.000     -0.64001550714128E+00       -17.416               1.40E-10
               2        0.000      0.21877363418383E+00         5.953
               3        0.000      0.28398789686614E+01        77.277
 P
               1        4.000     -0.25958007223203E+00        -7.064               1.18E-10
               2        0.000      0.13461661583919E+00         3.663
               3        0.000      0.12096081808046E+01        32.915
 D
               1        0.000      0.42347428111638E+00        11.523


 Partially Occupied:
               1 P                -0.25958007223203E+00
  
 HOMO :        1 S                -0.64001550714128E+00
 LUMO :        2 P                 0.13461661583919E+00
  


 Orbital Energies, all Irreps
 ========================================

 Irrep        no.  (spin)   Occup              E (au)                E (eV)
 ---------------------------------------------------------------------------
 S             1             2.00       -0.64001550714128E+00       -17.4157
 P             1             4.00       -0.25958007223203E+00        -7.0635
 P             2             0.00        0.13461661583919E+00         3.6631
 S             2             0.00        0.21877363418383E+00         5.9531
 D             1             0.00        0.42347428111638E+00        11.5233
 P             3             0.00        0.12096081808046E+01        32.9151
 S             3             0.00        0.28398789686614E+01        77.2770


 Scaled ZORA Orbital Energies of the Core Orbitals:
 ==================================================

 (Note that the atoms are grouped by atomtype, see the labels, and may hence NOT be in input order)

 AtomType  Orbital  Atom                   E (au)                        E (eV)
 --------  -------  ----           --------------------        ----------------
 S           1S        1          -0.88498778470967E+02               -2408.174
             2S        1          -0.77929530433695E+01                -212.057
             2P        1          -0.57607641251363E+01                -156.758



 =======================================
 M U L L I K E N   P O P U L A T I O N S
 =======================================
  
 The survey below gives for each atom:
 a) the total charge (Z minus electrons)
 b) the net spin polarization (nr of electrons spin-A minus spin-B)
 c) for each spin the atomic electron valence density (integrated) per L-value.

 Atom              Charge    Spin density          S         P         D         F
 ----              ------    ------------       ------    ------    ------    ------
 1 S               0.0000                       2.0000    4.0000    0.0000    0.0000

 Populations of individual BAS functions
 ----------------------------------------
 1 S           -0.0041 -0.0212  0.0228  0.0228  0.0228  0.4673  1.2557  0.3023  0.1857  0.1857
                0.1857  0.7304  0.7304  0.7304  0.3944  0.3944  0.3944  0.0000  0.0000  0.0000
                0.0000  0.0000  0.0000

 Gross Charges per Atom (Z minus electrons)
 ==========================================
             0.0000
 Net Total:  0.00000000


 Atom-Atom Population Matrix (off-diagonal elements not doubled)
 ===============================================================

     1 :     6.0000



 =============
 Dipole Moment  ***  (Debye)  ***
 =============
  
 Vector   :         0.00000000      0.00000000      0.00000000
 Magnitude:         0.00000000

 This molecular dipole moment is calculated with analytic integration



 =========================================
 Quadrupole Moment (Buckingham convention)  ***  (a.u.)  ***
 =========================================
  
      quad-xx        quad-xy        quad-xz        quad-yy        quad-yz        quad-zz
      0.00000000     0.00000000     0.00000000     0.00000000     0.00000000     0.00000000

 This molecular quadrupole moment is calculated with analytic integration



 ===============================================================================
 Electrostatic potential at the Nuclei due to valence electrons and other nuclei
 ===============================================================================
  
         Atom                  Potential
         ----                  ---------
     1)   S                   4.26106752
 
 
 ========================
 No memory problems found
 ========================
 
 Maximum number of active allocate calls:         381
 
 *******************************************************************************

                             A D F   E X I T
 NORMAL TERMINATION



 =================
 Timing Statistics
 =================
  
 Total Used :                     CPU=        0.20      System=        0.25     Elapsed=        0.45

 Calls  Section                     ( Mean, Percentage )
 ---------------------------------------------------------------------------------------------------
     3  ><      ................      0.00    0.51             0.00    0.00             0.00    0.16
     1  INIT    ................      0.03   17.86             0.00    0.80             0.04    9.45
     1  GEOMET  ................      0.03   17.86             0.24   95.98             0.27   60.80
     1  INPUTA  ................      0.00    0.51             0.00    0.00             0.00    0.32
     1  MAINSY  ................      0.01    7.14             0.00    0.00             0.01    3.03
     1  SYMFIT  ................      0.00    0.00             0.00    0.00             0.00    0.07
     1  CORORT  ................      0.00    0.00             0.00    0.00             0.00    0.06
     1  SYMORB  ................      0.00    0.51             0.00    0.00             0.00    0.19
     1  FITINT  ................      0.00    1.53             0.00    0.40             0.00    0.88
     1  CLSMAT  ................      0.00    0.51             0.00    0.00             0.00    0.17
     1  ORTHON  ................      0.00    0.51             0.00    0.00             0.00    0.30
     1  ETALOW  ................      0.00    0.51             0.00    0.00             0.00    0.15
     1  GENPT   ................      0.01    3.57             0.00    0.40             0.01    1.78
     1  PTBAS   ................      0.00    1.53             0.00    0.00             0.00    0.60
     7  FOCKY   ................      0.01   23.47             0.00    1.20             0.01   10.80
     7  FOCKTR  ................      0.00    0.51             0.00    0.00             0.00    0.35
     7  FOCKNM  ................      0.00    0.00             0.00    0.00             0.00    0.06
     7  SDIIS   ................      0.00    1.53             0.00    0.00             0.00    0.60
     7  EMERGE  ................      0.00    6.63             0.00    0.40             0.00    3.10
     1  COREPS  ................      0.01    3.57             0.00    0.40             0.01    1.89
     1  POPAN   ................      0.00    1.53             0.00    0.00             0.00    0.54
     1  DEBYE   ................      0.00    0.00             0.00    0.00             0.00    0.16
     1  QMPOT   ................      0.00    2.55             0.00    0.00             0.00    0.94
     1  EXIT PROCEDURE .........      0.01    7.65             0.00    0.40             0.02    3.60


 Currently Open Files (EXIT00)
 ====================

 Unit    Access Format  Status   Type       Ident (file)
 -------------------------------------------------------
   3      SEQ    FORM   TRANSP  NORMAL      LOGFILE
                                          ( logfile )


 Buffered I/O statistics
 =======================
 Memory available:                    536870912
 Number of records fitting in memory:    129055
 Input :   1.4% of                         2983  *4k bytes
 Output:  11.4% of                         1695  *4k bytes
 Records from serial files evicted:           0
                    others evicted:           0
 Hash table lookups:      12644 with          0 conflicts (  0.00%)

 ***************************************************************************************************
 (LOGFILE)
 <Feb21-2010> <17:31:11>  ADF 2007.01  RunTime: Feb21-2010 17:31:11
 <Feb21-2010> <17:31:11>  Sulphur (TZP, 2p frozen)
 <Feb21-2010> <17:31:11>  RunType   : CREATE
 <Feb21-2010> <17:31:11>  Net Charge: 0 (Nuclei minus Electrons)
 <Feb21-2010> <17:31:11>  Symmetry  : ATOM
 <Feb21-2010> <17:31:11>  >>>> CORORT
 <Feb21-2010> <17:31:11>  >>>> FITINT
 <Feb21-2010> <17:31:11>  >>>> CLSMAT
 <Feb21-2010> <17:31:11>  >>>> ORTHON
 <Feb21-2010> <17:31:11>  >>>> GENPT
 <Feb21-2010> <17:31:11>  Acc.Num.Int.=  10.000
 <Feb21-2010> <17:31:11>  Block Length=  62
 <Feb21-2010> <17:31:11>  >>>> PTBAS
 <Feb21-2010> <17:31:11>  >>>> CYCLE
 <Feb21-2010> <17:31:11>    1
 <Feb21-2010> <17:31:11>    2  ErrMat   0.00740848  MaxEl -0.00459085
 <Feb21-2010> <17:31:11>    3  ErrMat   0.00593533  MaxEl  0.00368949
 <Feb21-2010> <17:31:11>    4  ErrMat   0.00001650  MaxEl  0.00001033
 <Feb21-2010> <17:31:11>    5  ErrMat   0.00000004  MaxEl  0.00000002
 <Feb21-2010> <17:31:11>    6  ErrMat   0.00000000  MaxEl  0.00000000
 <Feb21-2010> <17:31:11>  SCF converged
 <Feb21-2010> <17:31:12>    7  ErrMat   0.00000000  MaxEl  0.00000000
 <Feb21-2010> <17:31:12>   Solutions with partially occupied orbitals may not be
 <Feb21-2010> <17:31:12>   lowest in energy. You might consider lowering the
 <Feb21-2010> <17:31:12>   symmetry in the input and explicitly specifying integer
 <Feb21-2010> <17:31:12>   occupations. In that case always check that you obtain
 <Feb21-2010> <17:31:12>   an aufbau solution.
 <Feb21-2010> <17:31:12>  >>>> COREPS
 <Feb21-2010> <17:31:12>  >>>> POPAN
 <Feb21-2010> <17:31:12>  >>>> DEBYE
 <Feb21-2010> <17:31:12>  NORMAL TERMINATION
 <Feb21-2010> <17:31:12>  END
(INPUT FILE)

create  Sc  /usr/local/adf2007.01/atomicdata/ZORA/TZP/Sc.2p
xc
GGA gradients becke perdew
end
relativistic scalar zora
corepotentials t12rel   <++
Sc    3
end
end input

 *******************************************************************************
 *                                                                             *
 *  -------------------------------------                                      *
 *   Amsterdam Density Functional  (ADF)         2007.01   August 20, 2007     *
 *  -------------------------------------                                      *
 *                                               Build 200807221915            *
 *                                                                             *
 *                                                                             *
 *                              =================                              *
 *                              |               |                              *
 *                              |     A D F     |                              *
 *                              |               |                              *
 *                              =================                              *
 *                                                                             *
 *                                                                             *
 *   Online information and documentation:  http://www.scm.com                 *
 *   E-mail:  support@scm.com   info@scm.com                                   *
 *                                                                             *
 *   Scientific publications using ADF results must be properly referenced     *
 *   See the User Manuals (or the web site) for recommended citations          *
 *   The terms and conditions of the End User License Agreement apply to       *
 *   the use of ADF, http://www.scm.com/Sales/LicAgreement.html                *
 *                                                                             *
 *****************************  pentium64_linux  *******************************
 
 ADF 2007.01  RunTime: Feb21-2010 17:31:12
 Scandium (TZP, 2p frozen)



 ===========================
 A T T A C H E D   F I L E S
 ===========================
  
 CREATE - Data File:    /usr/local/adf2007.01/atomicdata/ZORA/TZP/Sc.2p
                        Scandium (TZP, 2p frozen)
 Core Potentials:
         file : t12rel



 ===============================
 M O D E L   P A R A M E T E R S
 ===============================
  
 DENSITY FUNCTIONAL POTENTIAL (scf)
    LDA:                               VWN                                      
    Gradient Corrections:              Becke88 Perdew86                        == Not Default ==

 SPIN  (restricted / unrestr.)
    Molecule:                          Restricted                               

 OTHER ASPECTS
    Relativistic Corrections:          scalar (ZORA,SAPA)                       *** SPECIAL ***
    Core Treatment:                    Frozen Orbital(s)                        

    Electric Field:                    ---                                      

    Hyperfine or Zeeman Interaction:   ---                                      



 =====================================
 S Y M M E T R Y ,   E L E C T R O N S
 =====================================
  
 Symmetry: ATOM

 Irreducible Representations, including subspecies
 -------------------------------------------------
 S
 P:x  P:y  P:z
 D:z2  D:x2-y2  D:xy  D:xz  D:yz
 F:z3  F:z  F:xyz  F:z2x  F:z2y  F:x  F:y


 Configuration of Valence Electrons
 ==================================

          Occupation Numbers
          -------------------------------------------------
 S        2*2
 P        6
 D        1
 F        0
          -------------------------------------------------

 Total:   11

 Net Charge: 0 (Nuclei minus Electrons)

 Preset values for MO occupations will be applied through SCF cycle no. 1000000
 Thereafter, the program will assign electrons to MOs that are spatially
 similar to the occupied MOs in a "reference" cycle ("KeepOrbitals").
 The reference cycle is always the PREVIOUS cycle: it will evolve with
 the SCF procedure.



 ================================
 (Slater-type)  F U N C T I O N S  ***  (Basis and Fit)  ***
 ================================
  

 Atom Type    1  (Sc)
 ==============

 Valence Basis Sets:  15
 -----------------------
   1 S   16.800000
   2 S    6.800000
   2 P    8.450000
   3 S    3.200000
   3 S    5.250000
   3 P    5.150000
   3 P    3.350000
   3 P    2.150000
   3 D    0.900000
   3 D    2.000000
   3 D    4.400000
   4 S    0.800000
   4 S    1.150000
   4 S    1.750000
   4 P    1.140000

 Frozen Core Shells
 ------------------
    S:  2
    P:  1

 Charge Fitting Sets (for the computation of the Coulomb Potential):  34
 -----------------------------------------------------------------------
   1 S   33.600000
   2 S   32.340000
   3 S   28.610000
   4 S   24.650000
   4 S   16.810000
   5 S   14.340000
   5 S   10.150000
   6 S    8.630000
   6 S    6.280000
   6 S    4.570000
   7 S    3.890000
   7 S    2.890000
   7 S    2.150000
   7 S    1.600000
   2 P   25.250000
   3 P   16.380000
   4 P   10.800000
   5 P    7.260000
   6 P    4.970000
   6 P    2.930000
   7 P    2.040000
   3 D   21.200000
   4 D   13.500000
   5 D    8.800000
   6 D    5.860000
   6 D    3.360000
   7 D    2.280000
   4 F   12.850000
   5 F    7.290000
   5 F    3.480000
   6 F    2.040000
   5 G    7.550000
   5 G    3.890000
   5 G    2.000000


 BAS: List of all Elementary Cartesian Basis Functions
 =====================================================

 The numbering in the list below (to the right of the function characteristics) is referred
 to in print-outs of MO eigenvectors and Mulliken populations in the BAS representation
 (as contrasted to the SFO representation).

 Notes:
 1. The functions are characterized by a polynomial prefactor (powers of x,y,z and r) and
    an exponential decay factor alpha.
[...]
   79.Sc        1.996690    0.224439   -1.049928
   80.C        -3.378123   -2.637879    0.278674
   81.C        -2.418670   -2.447634   -2.040271
   82.C        -1.223996   -2.530313   -2.886209
   83.C        -2.438806   -3.109431   -0.723821
   84.C        -1.233198   -3.812746   -0.268450
   85.S        -0.113313    0.496796    0.000368
 <Feb22-2010> <02:12:27>  >>>> CORORT
 <Feb22-2010> <02:12:31>  >>>> FITINT
 <Feb22-2010> <02:12:39>  >>>> CLSMAT
 <Feb22-2010> <02:12:39>  >>>> ORTHON
 <Feb22-2010> <02:12:52>  >>>> GENPT
 <Feb22-2010> <02:12:52>  Acc.Num.Int.=   4.500
 <Feb22-2010> <02:12:53>  Block Length= 128
 <Feb22-2010> <02:12:56>  >>>> PTBAS
 <Feb22-2010> <02:14:41>  >>>> CYCLE
 <Feb22-2010> <02:14:52>    1
 <Feb22-2010> <02:15:41>    2  ErrMat   0.15118906  MaxEl -0.01109447
 <Feb22-2010> <02:16:00>    3  ErrMat   0.06963360  MaxEl -0.00513275
 <Feb22-2010> <02:16:19>    4  ErrMat   0.24664477  MaxEl -0.02826910
 <Feb22-2010> <02:16:38>    5  ErrMat   0.07638726  MaxEl  0.00986732
 <Feb22-2010> <02:16:57>    6  ErrMat   0.05363240  MaxEl -0.00662900
 <Feb22-2010> <02:17:16>    7  ErrMat   0.01957181  MaxEl  0.00151836
 <Feb22-2010> <02:17:35>    8  ErrMat   0.00739859  MaxEl -0.00050352
 <Feb22-2010> <02:17:55>    9  ErrMat   0.00379507  MaxEl  0.00026442
 <Feb22-2010> <02:18:14>   10  ErrMat   0.00280773  MaxEl  0.00028146
 <Feb22-2010> <02:18:33>   11  ErrMat   0.00103539  MaxEl -0.00007328
 <Feb22-2010> <02:18:52>   12  ErrMat   0.00025337  MaxEl  0.00002120
 <Feb22-2010> <02:19:00>  SCF converged
 <Feb22-2010> <02:19:12>   13  ErrMat   0.00018878  MaxEl  0.00001436
 <Feb22-2010> <02:19:50>  >>>> TOTEN
 <Feb22-2010> <02:23:05>  >>>> POPAN
 <Feb22-2010> <02:23:05>  >>>> DEBYE
 <Feb22-2010> <02:23:06>  >>>> AMETS
 <Feb22-2010> <02:23:07>  >>>> ENGRAD
 <Feb22-2010> <02:28:16>  E-test:  old,new= -26.72612, -26.79562 hartree
 <Feb22-2010> <02:28:16>  max gradient:      0.02086309 au/angstrom,radian
 <Feb22-2010> <02:28:16>  max cart. step:    0.02199869 angstrom
  Coordinates in Geometry Cycle 38
    Atom         X           Y           Z   (Angstrom)
    1.C         3.254382   -0.958146    2.529267
    2.C         3.941355   -0.337863    1.459265
    3.C         2.656808   -2.264109    2.376179
    4.C         2.402568   -0.173318    3.393218
    5.C         3.869838    1.081250    1.328266
    6.C         4.102098   -1.088351    0.234812
    7.C         3.876332    1.700314    0.015703
    8.C         3.049806    1.862463    2.191632
    9.C         3.485985   -2.385964    0.101668
   10.C         4.212627   -0.461385   -1.072068
   11.C         2.681727   -2.960468    1.138551
   12.C         3.169080   -2.564454   -1.285361
   13.C         1.514946   -3.763040    0.741476
   14.C         1.479547   -2.285432    3.199512
   15.C         4.100857    0.979428   -1.212479
   16.C         3.552343   -1.384733   -2.018535
   17.Sc       -2.079697   -0.640740    0.441465
   18.C         3.358893    1.459097   -2.371315
   19.C         3.042201    2.886669    0.109372
   20.C         2.717471    0.517453   -3.308290
   21.C         2.426685    2.571958   -2.226522
   22.C         2.064101   -3.348861   -1.662074
   23.C         1.234592   -3.929887   -0.649738
   24.C         1.240974   -2.912943   -2.746632
   25.C         2.734304   -0.915026   -3.101841
   26.C         1.531277   -1.708982   -3.468839
   27.C         1.501623    1.132868   -3.776979
   28.C         0.403345   -3.835684    1.624111
   29.C         0.380700   -3.068299    2.851340
   30.C        -0.942593   -3.882488    1.121820
   31.C        -0.122477   -3.916492   -1.148245
   32.C         2.263385    3.311413   -1.008344
   33.C         1.294645    2.374669   -3.095924
   34.C         1.001953    3.912197   -0.763732
   35.C         2.538671    2.982286    1.439979
   36.C        -0.121671    3.685399   -1.637994
   37.C         0.501406    4.030066    0.582782
   38.C         0.404201    0.389718   -4.204958
   39.C         0.418615   -1.044270   -4.057569
   40.C        -0.922154    0.878382   -3.945134
   41.C        -0.020695    2.853357   -2.777512
   42.C        -1.180476    2.051933   -3.179852
   43.C        -1.317024    3.713105   -0.842874
   44.C        -0.119790   -3.287960   -2.435191
   45.C        -0.935519   -1.469998   -3.802268
   46.C         1.230515    3.511322    1.692062
   47.C        -0.927678    3.927692    0.529304
   48.C         0.490706    2.948792    2.784294
   49.C        -0.929525    2.855091    2.733197
   50.C         0.988466    1.799223    3.503725
   51.C        -1.653805    3.333888    1.603203
   52.C        -2.867738    2.689870    1.277200
   53.C        -3.319621    2.575884   -0.090919
   54.C        -3.294622    1.515638    2.005375
   55.C        -1.321575    1.632255    3.409748
   56.C        -2.463087    2.947471   -1.185363
   57.C        -2.419347    2.112842   -2.393146
   58.C        -4.119354    1.397684   -0.162360
   59.C        -3.308173    0.992648   -2.453505
   60.C        -1.755810   -0.296016   -3.819791
   61.C        -4.116460    0.617562   -1.323417
   62.C        -2.928829   -0.235776   -3.097896
   63.C         2.255940    1.227843    3.205438
   64.C        -0.130643    0.980687    3.865685
   65.C         1.279365   -0.989428    3.777507
   66.C        -0.035333   -0.436413    3.923077
   67.C        -1.190268   -1.237541    3.529638
   68.C        -0.938922   -2.578687    3.080694
   69.C        -2.448183    0.894034    2.998633
   70.C        -4.121256    0.737635    1.142091
   71.C        -2.419572   -0.576077    3.075200
   72.C        -3.369720   -1.324621    2.260476
   73.C        -1.767585   -3.174014    2.061703
   74.C        -4.223401   -0.670472    1.278889
   75.C        -4.224833   -1.483841    0.049574
   76.C        -2.962059   -2.586575    1.669307
   77.C        -4.136576   -0.830101   -1.202941
   78.C        -3.307960   -1.356389   -2.260510
   79.Sc        1.997239    0.226807   -1.029127
   80.C        -3.375287   -2.638392    0.274205
   81.C        -2.420783   -2.451687   -2.041708
   82.C        -1.222411   -2.533064   -2.889132
   83.C        -2.436695   -3.108556   -0.729239
   84.C        -1.234816   -3.815250   -0.275397
   85.S        -0.111331    0.509774    0.022367
 <Feb22-2010> <02:28:17>  >>>> CORORT
 <Feb22-2010> <02:28:21>  >>>> FITINT
 <Feb22-2010> <02:28:34>  >>>> CLSMAT
 <Feb22-2010> <02:28:36>  >>>> ORTHON
 <Feb22-2010> <02:28:48>  >>>> GENPT
 <Feb22-2010> <02:28:49>  Acc.Num.Int.=   4.500
 <Feb22-2010> <02:28:51>  Block Length= 128
 <Feb22-2010> <02:28:55>  >>>> PTBAS
 <Feb22-2010> <02:30:41>  >>>> CYCLE
 <Feb22-2010> <02:30:53>    1
 <Feb22-2010> <02:31:42>    2  ErrMat   0.02946283  MaxEl  0.00253354
 <Feb22-2010> <02:32:01>    3  ErrMat   0.01096834  MaxEl -0.00066251
 <Feb22-2010> <02:32:20>    4  ErrMat   0.03526206  MaxEl  0.00278243
 <Feb22-2010> <02:32:40>    5  ErrMat   0.01560615  MaxEl  0.00129666
 <Feb22-2010> <02:32:59>    6  ErrMat   0.00571787  MaxEl -0.00050163
 <Feb22-2010> <02:33:18>    7  ErrMat   0.00280368  MaxEl  0.00028817
 <Feb22-2010> <02:33:37>    8  ErrMat   0.00113769  MaxEl -0.00010520
 <Feb22-2010> <02:33:57>    9  ErrMat   0.00053680  MaxEl  0.00005541
 <Feb22-2010> <02:34:16>   10  ErrMat   0.00030382  MaxEl  0.00003276
 <Feb22-2010> <02:34:35>   11  ErrMat   0.00018498  MaxEl -0.00001406
 <Feb22-2010> <02:34:43>  SCF converged
 <Feb22-2010> <02:34:55>   12  ErrMat   0.00005989  MaxEl -0.00000582
 <Feb22-2010> <02:35:33>  >>>> TOTEN
 <Feb22-2010> <02:38:48>  >>>> POPAN
 <Feb22-2010> <02:38:48>  >>>> DEBYE
 <Feb22-2010> <02:38:49>  >>>> AMETS
 <Feb22-2010> <02:38:50>  >>>> ENGRAD
 <Feb22-2010> <02:44:02>  E-test:  old,new= -26.79562, -26.79709 hartree
 <Feb22-2010> <02:44:02>  max gradient:      0.01025122 au/angstrom,radian
 <Feb22-2010> <02:44:02>  max cart. step:    0.01156093 angstrom
  Coordinates in Geometry Cycle 39
    Atom         X           Y           Z   (Angstrom)
    1.C         3.254684   -0.956711    2.521872
    2.C         3.942071   -0.339049    1.451766
    3.C         2.656470   -2.262772    2.371664
    4.C         2.401375   -0.171489    3.385868
    5.C         3.870631    1.080864    1.325171
    6.C         4.101128   -1.086750    0.234990
    7.C         3.877636    1.701761    0.014770
    8.C         3.050148    1.861621    2.188562
    9.C         3.485810   -2.380177    0.098327
   10.C         4.209678   -0.462092   -1.070762
   11.C         2.682958   -2.957341    1.135418
   12.C         3.167042   -2.562382   -1.283881
   13.C         1.515087   -3.759976    0.740039
   14.C         1.478523   -2.282529    3.192813
   15.C         4.099476    0.979341   -1.212060
   16.C         3.550631   -1.384074   -2.016989
   17.Sc       -2.082622   -0.637480    0.433119
   18.C         3.355520    1.455600   -2.368306
   19.C         3.041833    2.887187    0.108667
   20.C         2.714118    0.513344   -3.302954
   21.C         2.423760    2.570945   -2.224434
   22.C         2.062730   -3.343925   -1.660218
   23.C         1.232169   -3.927400   -0.650318
   24.C         1.241629   -2.911024   -2.745462
   25.C         2.730133   -0.914578   -3.096169
   26.C         1.533060   -1.706864   -3.464503
   27.C         1.500725    1.130013   -3.774499
   28.C         0.403125   -3.832557    1.622380
   29.C         0.381266   -3.065850    2.849641
   30.C        -0.942240   -3.877914    1.119255
   31.C        -0.124117   -3.918883   -1.151488
   32.C         2.261700    3.310080   -1.008994
   33.C         1.294337    2.371603   -3.093500
   34.C         1.001561    3.910226   -0.763223
   35.C         2.537981    2.981519    1.438426
   36.C        -0.122090    3.681872   -1.636834
   37.C         0.499750    4.030730    0.583228
   38.C         0.403588    0.388042   -4.203940
   39.C         0.418963   -1.042816   -4.052547
   40.C        -0.922170    0.875118   -3.943302
   41.C        -0.021045    2.849147   -2.775352
   42.C        -1.178334    2.048851   -3.177202
   43.C        -1.315386    3.710594   -0.841183
   44.C        -0.119854   -3.291653   -2.439045
   45.C        -0.935784   -1.470876   -3.796017
   46.C         1.229545    3.511088    1.691966
   47.C        -0.926318    3.928394    0.528493
   48.C         0.490606    2.948756    2.783410
   49.C        -0.927451    2.853242    2.732307
   50.C         0.989719    1.801522    3.504986
   51.C        -1.652779    3.332571    1.602184
   52.C        -2.867812    2.688721    1.276887
   53.C        -3.318444    2.572939   -0.091287
   54.C        -3.294045    1.514642    2.005448
   55.C        -1.320594    1.632208    3.408504
   56.C        -2.460967    2.945464   -1.183574
   57.C        -2.416008    2.111437   -2.387085
   58.C        -4.117098    1.395692   -0.163611
   59.C        -3.304766    0.991374   -2.448822
   60.C        -1.753911   -0.297122   -3.815049
   61.C        -4.112710    0.616124   -1.318073
   62.C        -2.925946   -0.236315   -3.092707
   63.C         2.255963    1.228319    3.201759
   64.C        -0.129706    0.981493    3.866642
   65.C         1.278391   -0.986564    3.768418
   66.C        -0.034635   -0.435071    3.919122
   67.C        -1.189023   -1.237296    3.526790
   68.C        -0.938452   -2.574922    3.078467
   69.C        -2.447361    0.893984    2.997825
   70.C        -4.120155    0.736472    1.141489
   71.C        -2.419314   -0.575521    3.072153
   72.C        -3.369254   -1.322976    2.257207
   73.C        -1.765597   -3.168990    2.057807
   74.C        -4.223545   -0.670524    1.276778
   75.C        -4.223387   -1.482405    0.050564
   76.C        -2.960425   -2.584441    1.666374
   77.C        -4.135186   -0.831345   -1.201667
   78.C        -3.307868   -1.356030   -2.257692
   79.Sc        1.995549    0.224382   -1.017566
   80.C        -3.375535   -2.638343    0.272527
   81.C        -2.422552   -2.454602   -2.044462
   82.C        -1.222084   -2.535194   -2.891833
   83.C        -2.438256   -3.108417   -0.730999
   84.C        -1.235487   -3.815983   -0.278240
   85.S        -0.107777    0.508554    0.029444
 <Feb22-2010> <02:44:03>  >>>> CORORT
 <Feb22-2010> <02:44:07>  >>>> FITINT
 <Feb22-2010> <02:44:13>  >>>> CLSMAT
 <Feb22-2010> <02:44:15>  >>>> ORTHON
 <Feb22-2010> <02:44:28>  >>>> GENPT
 <Feb22-2010> <02:44:29>  Acc.Num.Int.=   4.500
 <Feb22-2010> <02:44:30>  Block Length= 128
 <Feb22-2010> <02:44:33>  >>>> PTBAS
 <Feb22-2010> <02:46:19>  >>>> CYCLE
 <Feb22-2010> <02:46:31>    1
 <Feb22-2010> <02:47:20>    2  ErrMat   0.02003441  MaxEl  0.00165053
 <Feb22-2010> <02:47:39>    3  ErrMat   0.00687588  MaxEl  0.00054094
 <Feb22-2010> <02:47:58>    4  ErrMat   0.01938902  MaxEl -0.00169885
 <Feb22-2010> <02:48:18>    5  ErrMat   0.01049424  MaxEl  0.00073727
 <Feb22-2010> <02:48:37>    6  ErrMat   0.00304906  MaxEl -0.00023115
 <Feb22-2010> <02:48:56>    7  ErrMat   0.00137076  MaxEl  0.00013431
 <Feb22-2010> <02:49:15>    8  ErrMat   0.00046934  MaxEl  0.00004705
 <Feb22-2010> <02:49:35>    9  ErrMat   0.00030025  MaxEl -0.00004024
 <Feb22-2010> <02:49:54>   10  ErrMat   0.00017287  MaxEl  0.00002303
 <Feb22-2010> <02:50:01>  SCF converged
 <Feb22-2010> <02:50:14>   11  ErrMat   0.00006476  MaxEl  0.00000463
 <Feb22-2010> <02:50:52>  >>>> TOTEN
 <Feb22-2010> <02:54:08>  >>>> POPAN
 <Feb22-2010> <02:54:08>  >>>> DEBYE
 <Feb22-2010> <02:54:09>  >>>> AMETS
 <Feb22-2010> <02:54:11>  >>>> ENGRAD
 <Feb22-2010> <02:59:23>  E-test:  old,new= -26.79709, -26.79784 hartree
 <Feb22-2010> <02:59:23>  max gradient:      0.00618785 au/angstrom,radian
 <Feb22-2010> <02:59:23>  max cart. step:    0.00457245 angstrom
 <Feb22-2010> <02:59:23>  Geometry Converged
  Coordinates in Geometry Cycle 40
    Atom         X           Y           Z   (Angstrom)
    1.C         3.254755   -0.956797    2.522273
    2.C         3.941871   -0.339379    1.451409
    3.C         2.656285   -2.263832    2.372312
    4.C         2.401351   -0.171830    3.385986
    5.C         3.870648    1.081205    1.324545
    6.C         4.100629   -1.086640    0.235484
    7.C         3.878646    1.702935    0.013796
    8.C         3.050103    1.861278    2.187883
    9.C         3.485217   -2.379041    0.098058
   10.C         4.209546   -0.462971   -1.069897
   11.C         2.682435   -2.957253    1.135627
   12.C         3.165465   -2.561541   -1.283072
   13.C         1.515090   -3.760618    0.739640
   14.C         1.478514   -2.283414    3.193171
   15.C         4.100490    0.979868   -1.212243
   16.C         3.550493   -1.384626   -2.016452
   17.Sc       -2.081454   -0.633445    0.437074
   18.C         3.355043    1.454026   -2.367127
   19.C         3.042208    2.887670    0.108276
   20.C         2.713235    0.511668   -3.302208
   21.C         2.423026    2.570049   -2.223888
   22.C         2.060881   -3.342073   -1.660185
   23.C         1.231687   -3.927735   -0.650822
   24.C         1.241144   -2.910366   -2.746476
   25.C         2.728196   -0.914805   -3.095170
   26.C         1.533246   -1.705885   -3.464602
   27.C         1.500568    1.129286   -3.773637
   28.C         0.403660   -3.833849    1.622471
   29.C         0.381827   -3.067804    2.850238
   30.C        -0.941643   -3.877728    1.118182
   31.C        -0.124304   -3.920838   -1.153340
   32.C         2.261443    3.310034   -1.009797
   33.C         1.293882    2.370350   -3.092898
   34.C         1.001604    3.910282   -0.764227
   35.C         2.538380    2.981700    1.437737
   36.C        -0.122535    3.682128   -1.637357
   37.C         0.499382    4.031160    0.582836
   38.C         0.403063    0.387807   -4.204558
   39.C         0.418964   -1.042196   -4.053356
   40.C        -0.922783    0.874727   -3.944199
   41.C        -0.021651    2.848794   -2.776157
   42.C        -1.178563    2.048962   -3.177625
   43.C        -1.315471    3.710690   -0.841948
   44.C        -0.120256   -3.294097   -2.441490
   45.C        -0.936337   -1.471327   -3.796649
   46.C         1.229867    3.511477    1.691488
   47.C        -0.926452    3.928957    0.528045
   48.C         0.490448    2.948746    2.782333
   49.C        -0.927737    2.853142    2.731566
   50.C         0.989636    1.801193    3.504912
   51.C        -1.653292    3.332678    1.601322
   52.C        -2.868307    2.688639    1.276131
   53.C        -3.318727    2.572897   -0.091998
   54.C        -3.293606    1.514241    2.004574
   55.C        -1.320535    1.631726    3.407739
   56.C        -2.461588    2.945718   -1.184853
   57.C        -2.416431    2.111350   -2.387375
   58.C        -4.116360    1.394871   -0.164476
   59.C        -3.304807    0.990812   -2.449890
   60.C        -1.754072   -0.297360   -3.815949
   61.C        -4.111560    0.615373   -1.317738
   62.C        -2.925602   -0.236841   -3.092739
   63.C         2.255824    1.227596    3.201164
   64.C        -0.129686    0.981154    3.866372
   65.C         1.278325   -0.987471    3.768540
   66.C        -0.034150   -0.435843    3.918880
   67.C        -1.188258   -1.238305    3.525893
   68.C        -0.938082   -2.575634    3.078400
   69.C        -2.447073    0.893437    2.997280
   70.C        -4.119687    0.735454    1.141082
   71.C        -2.419168   -0.575832    3.071032
   72.C        -3.370232   -1.323577    2.257313
   73.C        -1.764325   -3.168408    2.055980
   74.C        -4.225417   -0.671350    1.276839
   75.C        -4.221640   -1.481503    0.050862
   76.C        -2.959588   -2.584500    1.665426
   77.C        -4.133929   -0.831923   -1.201392
   78.C        -3.307667   -1.356583   -2.257870
   79.Sc        1.995783    0.224595   -1.015718
   80.C        -3.373452   -2.636876    0.271427
   81.C        -2.423420   -2.456708   -2.046910
   82.C        -1.222356   -2.536351   -2.893890
   83.C        -2.437460   -3.107745   -0.731868
   84.C        -1.235211   -3.816959   -0.279428
   85.S        -0.108182    0.511400    0.034017
 <Feb22-2010> <02:59:24>  >>>> CORORT
 <Feb22-2010> <02:59:28>  >>>> FITINT
 <Feb22-2010> <02:59:35>  >>>> CLSMAT
 <Feb22-2010> <02:59:36>  >>>> ORTHON
 <Feb22-2010> <02:59:51>  >>>> GENPT
 <Feb22-2010> <02:59:52>  Acc.Num.Int.=   4.500
 <Feb22-2010> <02:59:52>  Block Length= 128
 <Feb22-2010> <02:59:56>  >>>> PTBAS
 <Feb22-2010> <03:01:37>  >>>> CYCLE
 <Feb22-2010> <03:01:49>    1
 <Feb22-2010> <03:02:38>    2  ErrMat   0.00478566  MaxEl -0.00039770
 <Feb22-2010> <03:02:57>    3  ErrMat   0.00168849  MaxEl -0.00016902
 <Feb22-2010> <03:03:16>    4  ErrMat   0.00505893  MaxEl  0.00034985
 <Feb22-2010> <03:03:36>    5  ErrMat   0.00277723  MaxEl  0.00021542
 <Feb22-2010> <03:03:55>    6  ErrMat   0.00104085  MaxEl  0.00008009
 <Feb22-2010> <03:04:14>    7  ErrMat   0.00058370  MaxEl  0.00007919
 <Feb22-2010> <03:04:33>    8  ErrMat   0.00022564  MaxEl -0.00003051
 <Feb22-2010> <03:04:53>    9  ErrMat   0.00009428  MaxEl -0.00000896
 <Feb22-2010> <03:05:12>   10  ErrMat   0.00006273  MaxEl  0.00000558
 <Feb22-2010> <03:05:31>   11  ErrMat   0.00002510  MaxEl  0.00000258
 <Feb22-2010> <03:05:50>   12  ErrMat   0.00001175  MaxEl  0.00000095
 <Feb22-2010> <03:06:10>   13  ErrMat   0.00000656  MaxEl -0.00000058
 <Feb22-2010> <03:06:18>  SCF converged
 <Feb22-2010> <03:06:30>   14  ErrMat   0.00000266  MaxEl -0.00000021
 <Feb22-2010> <03:07:08>  >>>> COREPS
 <Feb22-2010> <03:07:12>  >>>> TOTEN
 <Feb22-2010> <03:10:29>  >>>> POPAN
 <Feb22-2010> <03:10:30>  >>>> DEBYE
 <Feb22-2010> <03:10:30>  >>>> AMETS
 <Feb22-2010> <03:10:32>  >>>> POPUL
 <Feb22-2010> <03:10:43>   Bond Energy LDA     -29.97274122 a.u.
 <Feb22-2010> <03:10:43>   Bond Energy LDA    -815.59978657 eV
 <Feb22-2010> <03:10:43>           + GGA-X     -24.37144739 a.u.
 <Feb22-2010> <03:10:43>           + GGA-X    -663.18082638 eV
 <Feb22-2010> <03:10:43>          + GGA-XC     -26.79760045 a.u.
 <Feb22-2010> <03:10:43>          + GGA-XC    -729.19981013 eV
 <Feb22-2010> <03:10:43>  NORMAL TERMINATION
 <Feb22-2010> <03:10:44>  END
