       N       E                     dE             d eps       ncg     rms          rms(c)
DAV:   1    -0.145472121077E+04   -0.14547E+04   -0.61895E+03  3776   0.530E+01    0.184E+02
DAV:   2    -0.402320032169E+04   -0.25685E+04   -0.66357E+04  3200   0.401E+02    0.384E+02
DAV:   3    -0.129190534172E+04    0.27313E+04   -0.30301E+04  3536   0.332E+02    0.208E+02
DAV:   4    -0.129302617109E+04   -0.11208E+01   -0.13302E+04  3328   0.194E+02    0.121E+02
DAV:   5    -0.128014477751E+04    0.12881E+02   -0.52494E+03  3488   0.929E+01    0.969E+01
DAV:   6    -0.115689613429E+04    0.12325E+03   -0.54687E+02  2976   0.296E+01    0.785E+01
DAV:   7    -0.111432726594E+04    0.42569E+02   -0.10514E+02  3520   0.160E+01    0.676E+01
DAV:   8    -0.107193970719E+04    0.42388E+02   -0.35019E+01  3392   0.105E+01    0.631E+01
DAV:   9    -0.103217897424E+04    0.39761E+02   -0.10402E+02  3280   0.127E+01    0.917E+01
DAV:  10    -0.100289194147E+04    0.29287E+02   -0.10726E+02  3344   0.120E+01    0.477E+01
DAV:  11    -0.989663629869E+03    0.13228E+02   -0.12338E+01  3424   0.618E+00    0.433E+01
DAV:  12    -0.961653238164E+03    0.28010E+02   -0.15407E+01  3200   0.724E+00    0.383E+01
DAV:  13    -0.947844613454E+03    0.13809E+02   -0.14745E+01  3136   0.515E+00    0.359E+01
DAV:  14    -0.946194701037E+03    0.16499E+01   -0.15785E+00  3616   0.182E+00    0.355E+01
DAV:  15    -0.945963604968E+03    0.23110E+00   -0.10013E-01  3168   0.507E-01    0.354E+01
DAV:  16    -0.945960674968E+03    0.29300E-02   -0.48881E-02  3648   0.426E-01    0.355E+01
DAV:  17    -0.946019511628E+03   -0.58837E-01   -0.31058E-02  2992   0.207E-01    0.355E+01
DAV:  18    -0.945336069271E+03    0.68344E+00   -0.60570E-01  3472   0.636E-01    0.355E+01
DAV:  19    -0.944183511027E+03    0.11526E+01   -0.32170E-01  3152   0.747E-01    0.353E+01
DAV:  20    -0.944307542088E+03   -0.12403E+00   -0.39955E-02  2704   0.358E-01    0.353E+01
DAV:  21    -0.944305881316E+03    0.16608E-02   -0.63197E-03  3536   0.127E-01    0.353E+01
DAV:  22    -0.944289188164E+03    0.16693E-01   -0.27683E-04  1920   0.262E-02    0.353E+01
DAV:  23    -0.941150350766E+03    0.31388E+01   -0.34585E-01  3408   0.118E+00    0.351E+01
DAV:  24    -0.939471737737E+03    0.16786E+01   -0.82891E-01  3072   0.105E+00    0.348E+01
DAV:  25    -0.938755303007E+03    0.71643E+00   -0.14174E+00  3200   0.796E-01    0.346E+01
DAV:  26    -0.938731119508E+03    0.24183E-01   -0.30099E-01  2896   0.336E-01    0.346E+01
DAV:  27    -0.938735485775E+03   -0.43663E-02   -0.28607E-02  3280   0.131E-01    0.346E+01
DAV:  28    -0.938846461068E+03   -0.11098E+00   -0.65782E-02  3040   0.140E-01    0.346E+01
DAV:  29    -0.938670722499E+03    0.17574E+00   -0.52040E-01  3072   0.480E-01    0.346E+01
DAV:  30    -0.938449882285E+03    0.22084E+00   -0.88065E-02  2976   0.301E-01    0.345E+01
DAV:  31    -0.935367092446E+03    0.30828E+01   -0.32134E+00  2912   0.147E+00    0.338E+01
DAV:  32    -0.912491052455E+03    0.22876E+02   -0.13449E+01  2864   0.635E+00    0.296E+01
DAV:  33    -0.886151377348E+03    0.26340E+02   -0.26318E+01  3008   0.781E+00    0.243E+01
DAV:  34    -0.885096444515E+03    0.10549E+01   -0.77308E+00  3088   0.496E+00    0.227E+01
DAV:  35    -0.882107424978E+03    0.29890E+01   -0.22567E+00  3232   0.260E+00    0.220E+01
DAV:  36    -0.875429828377E+03    0.66776E+01   -0.82609E+00  3088   0.410E+00    0.200E+01
DAV:  37    -0.875256933781E+03    0.17289E+00   -0.43693E+00  3008   0.262E+00    0.200E+01
DAV:  38    -0.874809078363E+03    0.44786E+00   -0.32448E-01  2944   0.810E-01    0.200E+01
DAV:  39    -0.874810475025E+03   -0.13967E-02   -0.17068E-02  3328   0.204E-01    0.199E+01
DAV:  40    -0.875135388971E+03   -0.32491E+00   -0.16745E-02  2960   0.224E-01    0.200E+01
DAV:  41    -0.875089709755E+03    0.45679E-01   -0.14697E-01  2848   0.511E-01    0.200E+01
DAV:  42    -0.874558260516E+03    0.53145E+00   -0.11571E+00  2880   0.120E+00    0.199E+01
DAV:  43    -0.874341578706E+03    0.21668E+00   -0.15715E-01  2784   0.507E-01    0.199E+01
DAV:  44    -0.874539403910E+03   -0.19783E+00   -0.11950E-01  3104   0.421E-01    0.199E+01
DAV:  45    -0.874498411835E+03    0.40992E-01   -0.25020E-01  3088   0.504E-01    0.198E+01
DAV:  46    -0.872919542388E+03    0.15789E+01   -0.11583E+00  2976   0.129E+00    0.196E+01
DAV:  47    -0.853500483404E+03    0.19419E+02   -0.26283E+02  3152   0.172E+01    0.138E+02
DAV:  48    -0.827243493963E+03    0.26257E+02   -0.50468E+02  3232   0.375E+01    0.245E+01
DAV:  49    -0.842766409073E+03   -0.15523E+02   -0.19173E+02  3040   0.119E+01    0.197E+01
DAV:  50    -0.834207528037E+03    0.85589E+01   -0.10769E+01  3168   0.406E+00
   1 F= -.83420753E+03 E0= -.83420311E+03  d E =-.834208E+03  mag=     1.0610
       N       E                     dE             d eps       ncg     rms          rms(c)
DAV:   1    -0.841416502217E+03   -0.84142E+03   -0.45347E+02  2112   0.309E+01    0.216E+01
DAV:   2    -0.859739212885E+03   -0.18323E+02   -0.12515E+02  3328   0.212E+01    0.266E+01
DAV:   3    -0.859090315710E+03    0.64890E+00   -0.11349E+02  2960   0.165E+01    0.120E+01
DAV:   4    -0.862923960193E+03   -0.38336E+01   -0.43955E+01  2960   0.765E+00    0.120E+01
DAV:   5    -0.861672155495E+03    0.12518E+01   -0.62392E+00  3008   0.353E+00    0.948E+00
DAV:   6    -0.862075563246E+03   -0.40341E+00   -0.13257E+01  3040   0.478E+00    0.126E+01
DAV:   7    -0.862981131480E+03   -0.90557E+00   -0.41088E+00  3040   0.310E+00    0.142E+01
DAV:   8    -0.863619664737E+03   -0.63853E+00   -0.69702E+00  3264   0.272E+00    0.158E+01
DAV:   9    -0.862962425646E+03    0.65724E+00   -0.12922E+00  3216   0.253E+00    0.118E+01
DAV:  10    -0.863225000891E+03   -0.26258E+00   -0.84760E-01  2896   0.127E+00    0.119E+01
DAV:  11    -0.863108352115E+03    0.11665E+00   -0.79725E-01  3200   0.143E+00    0.805E+00
DAV:  12    -0.863317038760E+03   -0.20869E+00   -0.12779E+00  3056   0.170E+00    0.905E+00
DAV:  13    -0.863213192842E+03    0.10385E+00   -0.11625E+00  3056   0.167E+00    0.708E+00
DAV:  14    -0.863284334493E+03   -0.71142E-01   -0.67554E-01  2896   0.735E-01    0.873E+00
DAV:  15    -0.863247099566E+03    0.37235E-01   -0.14397E-01  3344   0.565E-01    0.117E+01
DAV:  16    -0.863146099038E+03    0.10100E+00   -0.10104E+00  3008   0.578E-01    0.686E+00
DAV:  17    -0.863101787912E+03    0.44311E-01   -0.52465E-01  3072   0.678E-01    0.662E+00
DAV:  18    -0.863113103001E+03   -0.11315E-01   -0.36260E-02  2672   0.221E-01    0.662E+00
DAV:  19    -0.863117808644E+03   -0.47056E-02   -0.67513E-03  3008   0.653E-02    0.667E+00
DAV:  20    -0.863117358951E+03    0.44969E-03   -0.27583E-02  2912   0.165E-01    0.670E+00
DAV:  21    -0.863116917806E+03    0.44114E-03   -0.25557E-03  2656   0.607E-02    0.670E+00
DAV:  22    -0.863136305175E+03   -0.19387E-01   -0.84123E-03  2768   0.112E-01    0.670E+00
DAV:  23    -0.863192779709E+03   -0.56475E-01   -0.71472E-01  3040   0.702E-01    0.691E+00
DAV:  24    -0.863208745919E+03   -0.15966E-01   -0.60987E-02  2848   0.317E-01    0.689E+00
DAV:  25    -0.863301130131E+03   -0.92384E-01   -0.68814E-01  3120   0.498E-01    0.108E+01
DAV:  26    -0.863259923135E+03    0.41207E-01   -0.35315E-02  2672   0.233E-01    0.109E+01
DAV:  27    -0.863296499952E+03   -0.36577E-01   -0.33089E-01  3120   0.460E-01    0.104E+01
DAV:  28    -0.863588358287E+03   -0.29186E+00   -0.12080E+00  3152   0.110E+00    0.109E+01
DAV:  29    -0.863604915377E+03   -0.16557E-01   -0.67316E-01  3120   0.665E-01    0.105E+01
DAV:  30    -0.863603808840E+03    0.11065E-02   -0.15089E-01  3168   0.211E-01    0.104E+01
DAV:  31    -0.863651512729E+03   -0.47704E-01   -0.12835E+00  3104   0.989E-01    0.985E+00
DAV:  32    -0.863524716530E+03    0.12680E+00   -0.14658E+00  3104   0.128E+00    0.927E+00
DAV:  33    -0.863523912103E+03    0.80443E-03   -0.11321E-01  2768   0.416E-01    0.924E+00
DAV:  34    -0.863551641581E+03   -0.27729E-01   -0.10236E-02  3360   0.143E-01    0.925E+00
DAV:  35    -0.863655951404E+03   -0.10431E+00   -0.46801E-01  3104   0.718E-01    0.926E+00
DAV:  36    -0.863689188355E+03   -0.33237E-01   -0.99478E-01  3248   0.846E-01    0.931E+00
DAV:  37    -0.863639177270E+03    0.50011E-01   -0.23255E-01  3152   0.397E-01    0.933E+00
DAV:  38    -0.863568326002E+03    0.70851E-01   -0.35204E-01  3216   0.362E-01    0.938E+00
DAV:  39    -0.863560827995E+03    0.74980E-02   -0.75579E-02  3008   0.187E-01    0.940E+00
DAV:  40    -0.863568021626E+03   -0.71936E-02   -0.99802E-02  3056   0.236E-01    0.939E+00
DAV:  41    -0.863586526604E+03   -0.18505E-01   -0.89637E-01  3216   0.647E-01    0.942E+00
DAV:  42    -0.863611742589E+03   -0.25216E-01   -0.64786E-01  3232   0.558E-01    0.952E+00
DAV:  43    -0.863602196863E+03    0.95457E-02   -0.39598E-02  3040   0.171E-01    0.955E+00
DAV:  44    -0.863604188959E+03   -0.19921E-02   -0.11204E-03  2272   0.392E-02    0.955E+00
DAV:  45    -0.863602481213E+03    0.17077E-02   -0.91856E-04  2160   0.319E-02    0.954E+00
DAV:  46    -0.863585567980E+03    0.16913E-01   -0.26327E-02  2976   0.137E-01    0.945E+00
DAV:  47    -0.863510812048E+03    0.74756E-01   -0.22339E-01  3008   0.589E-01    0.930E+00
DAV:  48    -0.863533884344E+03   -0.23072E-01   -0.76411E-02  2800   0.258E-01    0.930E+00
DAV:  49    -0.863552530231E+03   -0.18646E-01   -0.69283E-02  3008   0.234E-01    0.924E+00
DAV:  50    -0.863524307852E+03    0.28222E-01   -0.13255E+00  3120   0.998E-01
   2 F= -.86352431E+03 E0= -.86352431E+03  d E =-.293168E+02  mag=     1.6894
       N       E                     dE             d eps       ncg     rms          rms(c)
DAV:   1    -0.863488469598E+03   -0.86349E+03   -0.35331E-01  3040   0.641E-01    0.864E+00
DAV:   2    -0.862876943343E+03    0.61153E+00   -0.13196E+01  3360   0.566E+00    0.526E+00
DAV:   3    -0.862980222818E+03   -0.10328E+00   -0.60876E+00  3152   0.462E+00    0.276E+00
DAV:   4    -0.863464364660E+03   -0.48414E+00   -0.34490E+00  3056   0.203E+00    0.353E+00
DAV:   5    -0.863297178508E+03    0.16719E+00   -0.52074E-01  3024   0.929E-01    0.209E+00
DAV:   6    -0.863496405697E+03   -0.19923E+00   -0.23236E+00  3184   0.116E+00    0.136E+01
DAV:   7    -0.863288894308E+03    0.20751E+00   -0.34557E-01  3136   0.148E+00    0.607E+00
DAV:   8    -0.863359140350E+03   -0.70246E-01   -0.10989E+00  3024   0.141E+00    0.291E+00
DAV:   9    -0.863370100362E+03   -0.10960E-01   -0.28614E-01  3008   0.720E-01    0.270E+00
DAV:  10    -0.863359282358E+03    0.10818E-01   -0.44233E-02  3072   0.320E-01    0.929E-01
DAV:  11    -0.863376417270E+03   -0.17135E-01   -0.10476E-01  3216   0.516E-01    0.641E-01
DAV:  12    -0.863404759885E+03   -0.28343E-01   -0.69078E-02  3088   0.309E-01    0.319E+00
DAV:  13    -0.863408139883E+03   -0.33800E-02   -0.18476E-02  2960   0.216E-01    0.322E+00
DAV:  14    -0.863414725886E+03   -0.65860E-02   -0.20470E-02  3072   0.165E-01    0.324E+00
DAV:  15    -0.863431797346E+03   -0.17071E-01   -0.19928E-02  3280   0.124E-01    0.360E+00
DAV:  16    -0.863420460002E+03    0.11337E-01   -0.14073E-02  2912   0.147E-01    0.360E+00
DAV:  17    -0.863415816872E+03    0.46431E-02   -0.25839E-02  3008   0.174E-01    0.383E+00
DAV:  18    -0.863423074403E+03   -0.72575E-02   -0.18194E-02  2864   0.126E-01    0.374E+00
DAV:  19    -0.863427521642E+03   -0.44472E-02   -0.68586E-03  2848   0.604E-02    0.381E+00
DAV:  20    -0.863412019893E+03    0.15502E-01   -0.47119E-01  3056   0.372E-01    0.435E+00
DAV:  21    -0.863408327142E+03    0.36928E-02   -0.15596E-01  3072   0.204E-01    0.445E+00
DAV:  22    -0.863404168996E+03    0.41581E-02   -0.34326E-03  2656   0.545E-02    0.441E+00
DAV:  23    -0.863401361724E+03    0.28073E-02   -0.10362E-03  2272   0.336E-02    0.436E+00
DAV:  24    -0.863403188818E+03   -0.18271E-02   -0.61303E-03  2560   0.697E-02    0.444E+00
DAV:  25    -0.863416655084E+03   -0.13466E-01   -0.47775E-02  2864   0.192E-01    0.429E+00
DAV:  26    -0.863404731846E+03    0.11923E-01   -0.52078E-02  3056   0.229E-01    0.392E+00
DAV:  27    -0.863404269409E+03    0.46244E-03   -0.23224E-01  3344   0.663E-01    0.306E+00
DAV:  28    -0.863376411071E+03    0.27858E-01   -0.29194E-01  3024   0.443E-01    0.266E+00
DAV:  29    -0.863359819199E+03    0.16592E-01   -0.75937E-02  3392   0.192E-01    0.248E+00
DAV:  30    -0.863360629617E+03   -0.81042E-03   -0.16790E-03  2864   0.550E-02    0.248E+00
DAV:  31    -0.863361930733E+03   -0.13011E-02   -0.53868E-04  1952   0.201E-02    0.247E+00
DAV:  32    -0.863361895810E+03    0.34923E-04   -0.10837E-04  1744   0.139E-02
   3 F= -.86336190E+03 E0= -.86336142E+03  d E =-.291544E+02  mag=     1.8591
       N       E                     dE             d eps       ncg     rms          rms(c)
DAV:   1    -0.863625235877E+03   -0.86363E+03   -0.90578E+01  2112   0.140E+01    0.274E+00
DAV:   2    -0.863977555254E+03   -0.35232E+00   -0.49713E+00  3184   0.382E+00    0.199E+00
DAV:   3    -0.863987797268E+03   -0.10242E-01   -0.68076E-01  3248   0.158E+00    0.139E+00
DAV:   4    -0.863996086561E+03   -0.82893E-02   -0.16605E-01  3088   0.679E-01    0.885E-01
DAV:   5    -0.864020632604E+03   -0.24546E-01   -0.12690E-01  3040   0.424E-01    0.720E-01
DAV:   6    -0.864044328229E+03   -0.23696E-01   -0.10907E-01  3152   0.353E-01    0.525E-01
DAV:   7    -0.864063863699E+03   -0.19535E-01   -0.81830E-02  3152   0.246E-01    0.389E-01
DAV:   8    -0.864084530526E+03   -0.20667E-01   -0.13336E-01  3200   0.268E-01    0.288E-01
DAV:   9    -0.864091061763E+03   -0.65312E-02   -0.37369E-02  3152   0.185E-01    0.233E-01
DAV:  10    -0.864094735206E+03   -0.36734E-02   -0.24701E-02  3024   0.150E-01    0.127E-01
DAV:  11    -0.864096656009E+03   -0.19208E-02   -0.75004E-03  3104   0.873E-02    0.103E-01
DAV:  12    -0.864097550210E+03   -0.89420E-03   -0.23843E-03  2720   0.561E-02    0.752E-02
DAV:  13    -0.864098432046E+03   -0.88184E-03   -0.24040E-03  2656   0.535E-02    0.411E-02
DAV:  14    -0.864099169204E+03   -0.73716E-03   -0.18347E-03  2240   0.363E-02    0.362E-02
DAV:  15    -0.864099484766E+03   -0.31556E-03   -0.59187E-04  1936   0.270E-02    0.209E-02
DAV:  16    -0.864099681535E+03   -0.19677E-03   -0.27256E-04  1760   0.203E-02    0.142E-02
DAV:  17    -0.864099831014E+03   -0.14948E-03   -0.12986E-04  1568   0.141E-02    0.132E-02
DAV:  18    -0.864100008237E+03   -0.17722E-03   -0.25240E-04  1632   0.116E-02    0.114E-02
DAV:  19    -0.864100105829E+03   -0.97592E-04   -0.12029E-04  1568   0.815E-03
   4 F= -.86410011E+03 E0= -.86410011E+03  d E =-.298926E+02  mag=     1.9901
       N       E                     dE             d eps       ncg     rms          rms(c)
DAV:   1    -0.864203682423E+03   -0.86420E+03   -0.32691E+01  2112   0.849E+00    0.102E+00
DAV:   2    -0.864289600920E+03   -0.85918E-01   -0.11867E+00  3184   0.228E+00    0.787E-01
DAV:   3    -0.864286334556E+03    0.32664E-02   -0.11270E-01  3120   0.631E-01    0.481E-01
DAV:   4    -0.864283228830E+03    0.31057E-02   -0.21466E-02  3008   0.236E-01    0.337E-01
DAV:   5    -0.864280794030E+03    0.24348E-02   -0.76237E-03  2816   0.152E-01    0.187E-01
DAV:   6    -0.864279593559E+03    0.12005E-02   -0.58192E-03  2896   0.140E-01    0.112E-01
DAV:   7    -0.864279538459E+03    0.55100E-04   -0.35973E-03  3056   0.969E-02    0.555E-02
DAV:   8    -0.864279602723E+03   -0.64264E-04   -0.92609E-04  2560   0.452E-02
   5 F= -.86427960E+03 E0= -.86427960E+03  d E =-.300721E+02  mag=     1.9949
       N       E                     dE             d eps       ncg     rms          rms(c)
DAV:   1    -0.864295891647E+03   -0.86430E+03   -0.81834E+00  2112   0.428E+00    0.512E-01
DAV:   2    -0.864318125715E+03   -0.22234E-01   -0.31287E-01  3200   0.115E+00    0.369E-01
DAV:   3    -0.864317596714E+03    0.52900E-03   -0.29373E-02  3120   0.303E-01    0.248E-01
DAV:   4    -0.864316797653E+03    0.79906E-03   -0.53632E-03  2976   0.116E-01    0.168E-01
DAV:   5    -0.864316237152E+03    0.56050E-03   -0.20456E-03  2816   0.751E-02    0.964E-02
DAV:   6    -0.864316040374E+03    0.19678E-03   -0.16112E-03  2640   0.730E-02    0.627E-02
DAV:   7    -0.864316118230E+03   -0.77856E-04   -0.97970E-04  2448   0.514E-02
   6 F= -.86431612E+03 E0= -.86431612E+03  d E =-.301086E+02  mag=     1.9973
       N       E                     dE             d eps       ncg     rms          rms(c)
DAV:   1    -0.864318122172E+03   -0.86432E+03   -0.20511E+00  2240   0.215E+00    0.259E-01
DAV:   2    -0.864323754237E+03   -0.56321E-02   -0.81156E-02  3072   0.569E-01    0.171E-01
DAV:   3    -0.864323832292E+03   -0.78055E-04   -0.84211E-03  3120   0.153E-01    0.133E-01
DAV:   4    -0.864323643819E+03    0.18847E-03   -0.14517E-03  2880   0.592E-02    0.881E-02
DAV:   5    -0.864323573861E+03    0.69958E-04   -0.67066E-04  2448   0.405E-02
   7 F= -.86432357E+03 E0= -.86432357E+03  d E =-.301160E+02  mag=     1.9982
       N       E                     dE             d eps       ncg     rms          rms(c)
DAV:   1    -0.864324123816E+03   -0.86432E+03   -0.15087E-01  2336   0.594E-01    0.767E-02
DAV:   2    -0.864324510472E+03   -0.38666E-03   -0.62573E-03  3216   0.155E-01    0.471E-02
DAV:   3    -0.864324581504E+03   -0.71032E-04   -0.77814E-04  2592   0.442E-02    0.447E-02
DAV:   4    -0.864324593424E+03   -0.11920E-04   -0.16248E-04  1872   0.223E-02    0.295E-02
DAV:   5    -0.864324700550E+03   -0.10713E-03   -0.37162E-04  1952   0.253E-02    0.241E-02
DAV:   6    -0.864324770975E+03   -0.70425E-04   -0.12507E-04  1616   0.190E-02
   8 F= -.86432477E+03 E0= -.86432477E+03  d E =-.301172E+02  mag=     1.9990
       N       E                     dE             d eps       ncg     rms          rms(c)
DAV:   1    -0.864321486044E+03   -0.86432E+03   -0.13460E+01  2112   0.548E+00    0.656E-01
DAV:   2    -0.864366868316E+03   -0.45382E-01   -0.57535E-01  3200   0.139E+00    0.430E-01
DAV:   3    -0.864366688248E+03    0.18007E-03   -0.30543E-02  3280   0.330E-01    0.322E-01
DAV:   4    -0.864365661216E+03    0.10270E-02   -0.14124E-02  2944   0.164E-01    0.192E-01
DAV:   5    -0.864364869118E+03    0.79210E-03   -0.36587E-03  2816   0.107E-01    0.105E-01
DAV:   6    -0.864364702745E+03    0.16637E-03   -0.18522E-03  2864   0.724E-02    0.783E-02
DAV:   7    -0.864364666184E+03    0.36562E-04   -0.11569E-03  2368   0.495E-02    0.410E-02
DAV:   8    -0.864364692404E+03   -0.26221E-04   -0.41339E-04  2064   0.319E-02
   9 F= -.86436469E+03 E0= -.86436469E+03  d E =-.399214E-01  mag=     1.9995
       N       E                     dE             d eps       ncg     rms          rms(c)
DAV:   1    -0.864348153244E+03   -0.86435E+03   -0.48063E+00  2112   0.329E+00    0.399E-01
DAV:   2    -0.864365061652E+03   -0.16908E-01   -0.21360E-01  3200   0.833E-01    0.262E-01
DAV:   3    -0.864364905015E+03    0.15664E-03   -0.11300E-02  3312   0.203E-01    0.194E-01
DAV:   4    -0.864364551633E+03    0.35338E-03   -0.52798E-03  2816   0.992E-02    0.117E-01
DAV:   5    -0.864364243573E+03    0.30806E-03   -0.12945E-03  2672   0.633E-02    0.633E-02
DAV:   6    -0.864364217770E+03    0.25803E-04   -0.68924E-04  2368   0.445E-02
  10 F= -.86436422E+03 E0= -.86436422E+03  d E =-.394468E-01  mag=     1.9997
       N       E                     dE             d eps       ncg     rms          rms(c)
DAV:   1    -0.864363231167E+03   -0.86436E+03   -0.58944E-01  2176   0.116E+00    0.137E-01
DAV:   2    -0.864365536180E+03   -0.23050E-02   -0.26709E-02  3168   0.294E-01    0.950E-02
DAV:   3    -0.864365547384E+03   -0.11203E-04   -0.18433E-03  3136   0.765E-02    0.683E-02
DAV:   4    -0.864365541219E+03    0.61643E-05   -0.54436E-04  2256   0.338E-02    0.422E-02
DAV:   5    -0.864365577658E+03   -0.36439E-04   -0.20435E-04  1760   0.251E-02
  11 F= -.86436558E+03 E0= -.86436558E+03  d E =-.408067E-01  mag=     1.9998
       N       E                     dE             d eps       ncg     rms          rms(c)
DAV:   1    -0.864360579406E+03   -0.86436E+03   -0.33366E+00  2112   0.274E+00    0.321E-01
DAV:   2    -0.864372705373E+03   -0.12126E-01   -0.14606E-01  3232   0.675E-01    0.208E-01
DAV:   3    -0.864372423697E+03    0.28168E-03   -0.69323E-03  3328   0.159E-01    0.151E-01
DAV:   4    -0.864372262942E+03    0.16076E-03   -0.38140E-03  2784   0.835E-02    0.961E-02
DAV:   5    -0.864372104437E+03    0.15850E-03   -0.88083E-04  2592   0.513E-02    0.527E-02
DAV:   6    -0.864372085099E+03    0.19338E-04   -0.53172E-04  2128   0.369E-02
  12 F= -.86437209E+03 E0= -.86437209E+03  d E =-.650744E-02  mag=     1.9999
       N       E                     dE             d eps       ncg     rms          rms(c)
DAV:   1    -0.864369698358E+03   -0.86437E+03   -0.65829E-01  2144   0.122E+00    0.147E-01
DAV:   2    -0.864372083058E+03   -0.23847E-02   -0.29455E-02  3136   0.300E-01    0.911E-02
DAV:   3    -0.864372048731E+03    0.34327E-04   -0.14527E-03  3008   0.728E-02    0.667E-02
DAV:   4    -0.864372035189E+03    0.13543E-04   -0.94708E-04  2304   0.429E-02    0.452E-02
DAV:   5    -0.864372020477E+03    0.14712E-04   -0.19883E-04  1776   0.259E-02
  13 F= -.86437202E+03 E0= -.86437202E+03  d E =-.644282E-02  mag=     1.9999
       N       E                     dE             d eps       ncg     rms          rms(c)
DAV:   1    -0.864371215355E+03   -0.86437E+03   -0.16027E+00  2112   0.191E+00    0.207E-01
DAV:   2    -0.864376847616E+03   -0.56323E-02   -0.66153E-02  3072   0.451E-01    0.129E-01
DAV:   3    -0.864376792207E+03    0.55409E-04   -0.34118E-03  3216   0.108E-01    0.943E-02
DAV:   4    -0.864376753628E+03    0.38578E-04   -0.17343E-03  2624   0.596E-02    0.637E-02
DAV:   5    -0.864376711041E+03    0.42587E-04   -0.43403E-04  2032   0.375E-02
  14 F= -.86437671E+03 E0= -.86437671E+03  d E =-.469056E-02  mag=     2.0000
       N       E                     dE             d eps       ncg     rms          rms(c)
DAV:   1    -0.864376351430E+03   -0.86438E+03   -0.55639E-02  2416   0.371E-01    0.452E-02
DAV:   2    -0.864376555912E+03   -0.20448E-03   -0.24087E-03  2960   0.843E-02    0.354E-02
DAV:   3    -0.864376557347E+03   -0.14355E-05   -0.13786E-04  1712   0.247E-02    0.266E-02
DAV:   4    -0.864376601507E+03   -0.44160E-04   -0.42460E-04  2128   0.274E-02    0.233E-02
DAV:   5    -0.864376615438E+03   -0.13932E-04   -0.75111E-05  1568   0.144E-02
  15 F= -.86437662E+03 E0= -.86437662E+03  d E =-.459496E-02  mag=     2.0000
       N       E                     dE             d eps       ncg     rms          rms(c)
DAV:   1    -0.864375817429E+03   -0.86438E+03   -0.22785E-01  2176   0.729E-01    0.803E-02
DAV:   2    -0.864376694658E+03   -0.87723E-03   -0.10234E-02  3056   0.178E-01    0.568E-02
DAV:   3    -0.864376674306E+03    0.20352E-04   -0.45559E-04  2112   0.442E-02    0.411E-02
DAV:   4    -0.864376697494E+03   -0.23189E-04   -0.61177E-04  2288   0.373E-02    0.307E-02
DAV:   5    -0.864376703208E+03   -0.57139E-05   -0.11115E-04  1664   0.204E-02
  16 F= -.86437670E+03 E0= -.86437670E+03  d E =-.468273E-02  mag=     2.0000
       N       E                     dE             d eps       ncg     rms          rms(c)
DAV:   1    -0.864373791597E+03   -0.86437E+03   -0.13588E+00  2112   0.176E+00    0.175E-01
DAV:   2    -0.864378211140E+03   -0.44195E-02   -0.51167E-02  3120   0.402E-01    0.102E-01
DAV:   3    -0.864378245398E+03   -0.34258E-04   -0.26131E-03  3248   0.900E-02    0.830E-02
DAV:   4    -0.864378193375E+03    0.52023E-04   -0.89197E-04  2352   0.419E-02    0.524E-02
DAV:   5    -0.864378162603E+03    0.30772E-04   -0.30527E-04  1840   0.358E-02
  17 F= -.86437816E+03 E0= -.86437816E+03  d E =-.145939E-02  mag=     2.0000
       N       E                     dE             d eps       ncg     rms          rms(c)
DAV:   1    -0.864374878423E+03   -0.86437E+03   -0.11753E+00  2112   0.164E+00    0.169E-01
DAV:   2    -0.864378677193E+03   -0.37988E-02   -0.44943E-02  3104   0.376E-01    0.979E-02
DAV:   3    -0.864378721755E+03   -0.44562E-04   -0.24439E-03  3200   0.856E-02    0.808E-02
DAV:   4    -0.864378677803E+03    0.43952E-04   -0.88105E-04  2368   0.409E-02    0.506E-02
DAV:   5    -0.864378657479E+03    0.20324E-04   -0.29082E-04  1792   0.336E-02
  18 F= -.86437866E+03 E0= -.86437866E+03  d E =-.195427E-02  mag=     2.0000
       N       E                     dE             d eps       ncg     rms          rms(c)
DAV:   1    -0.864374349655E+03   -0.86437E+03   -0.13891E+00  2112   0.178E+00    0.179E-01
DAV:   2    -0.864379027266E+03   -0.46776E-02   -0.53873E-02  3232   0.410E-01    0.102E-01
DAV:   3    -0.864379018371E+03    0.88951E-05   -0.20558E-03  3200   0.858E-02    0.775E-02
DAV:   4    -0.864378991095E+03    0.27275E-04   -0.11612E-03  2384   0.464E-02    0.556E-02
DAV:   5    -0.864378961061E+03    0.30035E-04   -0.31159E-04  1840   0.341E-02
  19 F= -.86437896E+03 E0= -.86437896E+03  d E =-.303581E-03  mag=     2.0000
       N       E                     dE             d eps       ncg     rms          rms(c)
DAV:   1    -0.864377626323E+03   -0.86438E+03   -0.40835E-01  2112   0.973E-01    0.103E-01
DAV:   2    -0.864379048114E+03   -0.14218E-02   -0.16612E-02  3152   0.226E-01    0.611E-02
DAV:   3    -0.864379039450E+03    0.86646E-05   -0.64083E-04  2352   0.505E-02    0.454E-02
DAV:   4    -0.864379064230E+03   -0.24781E-04   -0.71855E-04  2320   0.388E-02    0.375E-02
DAV:   5    -0.864379067644E+03   -0.34132E-05   -0.14525E-04  1712   0.215E-02
  20 F= -.86437907E+03 E0= -.86437907E+03  d E =-.410164E-03  mag=     2.0000
       N       E                     dE             d eps       ncg     rms          rms(c)
DAV:   1    -0.864378654552E+03   -0.86438E+03   -0.66691E-01  2128   0.125E+00    0.146E-01
DAV:   2    -0.864381371563E+03   -0.27170E-02   -0.31930E-02  3232   0.312E-01    0.891E-02
DAV:   3    -0.864381360207E+03    0.11356E-04   -0.12319E-03  2944   0.714E-02    0.624E-02
DAV:   4    -0.864381360995E+03   -0.78851E-06   -0.87524E-04  2352   0.424E-02    0.449E-02
DAV:   5    -0.864381355384E+03    0.56113E-05   -0.21374E-04  1776   0.270E-02
  21 F= -.86438136E+03 E0= -.86438136E+03  d E =-.228774E-02  mag=     2.0000
       N       E                     dE             d eps       ncg     rms          rms(c)
DAV:   1    -0.864381281431E+03   -0.86438E+03   -0.11576E-03  2512   0.650E-02    0.165E-02
DAV:   2    -0.864381316814E+03   -0.35383E-04   -0.19348E-04  1712   0.204E-02    0.143E-02
DAV:   3    -0.864381335737E+03   -0.18923E-04   -0.64748E-05  1472   0.146E-02    0.126E-02
DAV:   4    -0.864381366878E+03   -0.31140E-04   -0.11688E-04  1392   0.992E-03    0.110E-02
DAV:   5    -0.864381406944E+03   -0.40067E-04   -0.17828E-04  1424   0.938E-03
  22 F= -.86438141E+03 E0= -.86438141E+03  d E =-.233930E-02  mag=     2.0000
       N       E                     dE             d eps       ncg     rms          rms(c)
DAV:   1    -0.864381527942E+03   -0.86438E+03   -0.41183E-03  2304   0.993E-02    0.157E-02
DAV:   2    -0.864381565995E+03   -0.38054E-04   -0.21914E-04  1376   0.260E-02    0.116E-02
DAV:   3    -0.864381592992E+03   -0.26997E-04   -0.10522E-04  1312   0.155E-02    0.110E-02
DAV:   4    -0.864381612286E+03   -0.19294E-04   -0.54396E-05  1280   0.937E-03    0.109E-02
DAV:   5    -0.864381639778E+03   -0.27493E-04   -0.94602E-05  1280   0.790E-03
  23 F= -.86438164E+03 E0= -.86438164E+03  d E =-.257213E-02  mag=     2.0000
       N       E                     dE             d eps       ncg     rms          rms(c)
DAV:   1    -0.864380475301E+03   -0.86438E+03   -0.23356E-01  2112   0.734E-01    0.931E-02
DAV:   2    -0.864381487680E+03   -0.10124E-02   -0.11865E-02  3216   0.192E-01    0.572E-02
DAV:   3    -0.864381502217E+03   -0.14537E-04   -0.56547E-04  2256   0.468E-02    0.399E-02
DAV:   4    -0.864381509430E+03   -0.72129E-05   -0.30115E-04  1936   0.286E-02    0.259E-02
DAV:   5    -0.864381530765E+03   -0.21335E-04   -0.16246E-04  1664   0.210E-02
  24 F= -.86438153E+03 E0= -.86438153E+03  d E =0.109014E-03  mag=     2.0000
       N       E                     dE             d eps       ncg     rms          rms(c)
DAV:   1    -0.864381967226E+03   -0.86438E+03   -0.92754E-02  2144   0.466E-01    0.617E-02
DAV:   2    -0.864382390747E+03   -0.42352E-03   -0.49792E-03  3216   0.125E-01    0.390E-02
DAV:   3    -0.864382402029E+03   -0.11283E-04   -0.22690E-04  1776   0.315E-02    0.277E-02
DAV:   4    -0.864382425383E+03   -0.23354E-04   -0.25519E-04  1792   0.243E-02    0.179E-02
DAV:   5    -0.864382450651E+03   -0.25269E-04   -0.11730E-04  1536   0.167E-02
  25 F= -.86438245E+03 E0= -.86438245E+03  d E =-.810873E-03  mag=     2.0000
       N       E                     dE             d eps       ncg     rms          rms(c)
DAV:   1    -0.864382623931E+03   -0.86438E+03   -0.14492E-01  2176   0.581E-01    0.706E-02
DAV:   2    -0.864383231086E+03   -0.60716E-03   -0.68462E-03  3072   0.141E-01    0.466E-02
DAV:   3    -0.864383233106E+03   -0.20198E-05   -0.29069E-04  1936   0.360E-02    0.318E-02
DAV:   4    -0.864383262212E+03   -0.29106E-04   -0.43798E-04  1904   0.292E-02    0.239E-02
DAV:   5    -0.864383278661E+03   -0.16449E-04   -0.98455E-05  1472   0.171E-02
  26 F= -.86438328E+03 E0= -.86438328E+03  d E =-.828010E-03  mag=     2.0000
       N       E                     dE             d eps       ncg     rms          rms(c)
DAV:   1    -0.864383333888E+03   -0.86438E+03   -0.53128E-04  1840   0.294E-02    0.135E-02
DAV:   2    -0.864383364034E+03   -0.30147E-04   -0.13413E-04  1312   0.174E-02    0.122E-02
DAV:   3    -0.864383387339E+03   -0.23305E-04   -0.82683E-05  1296   0.105E-02    0.115E-02
DAV:   4    -0.864383412558E+03   -0.25219E-04   -0.81433E-05  1280   0.830E-03    0.107E-02
DAV:   5    -0.864383443975E+03   -0.31417E-04   -0.11739E-04  1264   0.687E-03
  27 F= -.86438344E+03 E0= -.86438344E+03  d E =-.993323E-03  mag=     2.0000
       N       E                     dE             d eps       ncg     rms          rms(c)
DAV:   1    -0.864383123146E+03   -0.86438E+03   -0.13525E-03  2240   0.658E-02    0.126E-02
DAV:   2    -0.864383154152E+03   -0.31006E-04   -0.13427E-04  1184   0.149E-02    0.111E-02
DAV:   3    -0.864383179731E+03   -0.25579E-04   -0.90410E-05  1216   0.923E-03    0.109E-02
DAV:   4    -0.864383202012E+03   -0.22281E-04   -0.64899E-05  1184   0.615E-03    0.109E-02
DAV:   5    -0.864383214326E+03   -0.12314E-04   -0.22143E-05  1184   0.425E-03
  28 F= -.86438321E+03 E0= -.86438321E+03  d E =-.763675E-03  mag=     2.0000
       N       E                     dE             d eps       ncg     rms          rms(c)
DAV:   1    -0.864383138969E+03   -0.86438E+03   -0.39592E-03  2336   0.105E-01    0.149E-02
DAV:   2    -0.864383176318E+03   -0.37349E-04   -0.21650E-04  1280   0.244E-02    0.119E-02
DAV:   3    -0.864383200579E+03   -0.24261E-04   -0.97337E-05  1232   0.137E-02    0.114E-02
DAV:   4    -0.864383220477E+03   -0.19898E-04   -0.58474E-05  1184   0.835E-03    0.111E-02
DAV:   5    -0.864383254835E+03   -0.34358E-04   -0.14944E-04  1200   0.804E-03
  29 F= -.86438325E+03 E0= -.86438325E+03  d E =-.804183E-03  mag=     2.0000
       N       E                     dE             d eps       ncg     rms          rms(c)
DAV:   1    -0.864384071416E+03   -0.86438E+03   -0.15276E-02  2256   0.190E-01    0.244E-02
DAV:   2    -0.864384151605E+03   -0.80189E-04   -0.73569E-04  2512   0.470E-02    0.166E-02
DAV:   3    -0.864384171725E+03   -0.20120E-04   -0.93804E-05  1392   0.154E-02    0.137E-02
DAV:   4    -0.864384195365E+03   -0.23640E-04   -0.94546E-05  1184   0.110E-02    0.117E-02
DAV:   5    -0.864384231232E+03   -0.35868E-04   -0.17142E-04  1216   0.925E-03
  30 F= -.86438423E+03 E0= -.86438423E+03  d E =-.178058E-02  mag=     2.0000
       N       E                     dE             d eps       ncg     rms          rms(c)
DAV:   1    -0.864384413386E+03   -0.86438E+03   -0.60407E-02  2288   0.380E-01    0.450E-02
DAV:   2    -0.864384652700E+03   -0.23931E-03   -0.25612E-03  2944   0.857E-02    0.300E-02
DAV:   3    -0.864384664974E+03   -0.12274E-04   -0.14500E-04  1664   0.234E-02    0.219E-02
DAV:   4    -0.864384693333E+03   -0.28359E-04   -0.23030E-04  1440   0.203E-02    0.147E-02
DAV:   5    -0.864384725012E+03   -0.31679E-04   -0.15021E-04  1376   0.146E-02
  31 F= -.86438473E+03 E0= -.86438473E+03  d E =-.227436E-02  mag=     2.0000
       N       E                     dE             d eps       ncg     rms          rms(c)
DAV:   1    -0.864383916686E+03   -0.86438E+03   -0.12196E-01  2256   0.540E-01    0.558E-02
DAV:   2    -0.864384347230E+03   -0.43054E-03   -0.48866E-03  3088   0.122E-01    0.360E-02
DAV:   3    -0.864384353263E+03   -0.60328E-05   -0.23454E-04  1792   0.298E-02    0.267E-02
DAV:   4    -0.864384373766E+03   -0.20503E-04   -0.24875E-04  1616   0.239E-02    0.173E-02
DAV:   5    -0.864384403008E+03   -0.29242E-04   -0.15482E-04  1520   0.168E-02
  32 F= -.86438440E+03 E0= -.86438440E+03  d E =0.322004E-03  mag=     2.0000
       N       E                     dE             d eps       ncg     rms          rms(c)
DAV:   1    -0.864382593133E+03   -0.86438E+03   -0.89194E-02  2256   0.463E-01    0.488E-02
DAV:   2    -0.864382919353E+03   -0.32622E-03   -0.36707E-03  3104   0.106E-01    0.323E-02
DAV:   3    -0.864382927144E+03   -0.77918E-05   -0.17974E-04  1712   0.261E-02    0.245E-02
DAV:   4    -0.864382952024E+03   -0.24880E-04   -0.24479E-04  1584   0.226E-02    0.162E-02
DAV:   5    -0.864382982844E+03   -0.30820E-04   -0.15259E-04  1504   0.159E-02
  33 F= -.86438298E+03 E0= -.86438298E+03  d E =0.174217E-02  mag=     2.0000
       N       E                     dE             d eps       ncg     rms          rms(c)
DAV:   1    -0.864384028538E+03   -0.86438E+03   -0.12098E-01  2256   0.546E-01    0.552E-02
DAV:   2    -0.864384458482E+03   -0.42994E-03   -0.49502E-03  2992   0.122E-01    0.361E-02
DAV:   3    -0.864384474155E+03   -0.15672E-04   -0.32843E-04  1952   0.329E-02    0.282E-02
DAV:   4    -0.864384485832E+03   -0.11677E-04   -0.15306E-04  1472   0.227E-02    0.187E-02
DAV:   5    -0.864384525800E+03   -0.39968E-04   -0.26673E-04  1520   0.204E-02
  34 F= -.86438453E+03 E0= -.86438453E+03  d E =-.154296E-02  mag=     2.0000
       N       E                     dE             d eps       ncg     rms          rms(c)
DAV:   1    -0.864384562195E+03   -0.86438E+03   -0.16625E-04  1184   0.146E-02    0.142E-02
DAV:   2    -0.864384592094E+03   -0.29899E-04   -0.12557E-04  1312   0.120E-02    0.121E-02
DAV:   3    -0.864384621340E+03   -0.29246E-04   -0.99292E-05  1280   0.854E-03    0.115E-02
DAV:   4    -0.864384649781E+03   -0.28441E-04   -0.89551E-05  1184   0.625E-03    0.115E-02
DAV:   5    -0.864384671221E+03   -0.21440E-04   -0.53467E-05  1184   0.447E-03
  35 F= -.86438467E+03 E0= -.86438467E+03  d E =-.168838E-02  mag=     2.0000
       N       E                     dE             d eps       ncg     rms          rms(c)
DAV:   1    -0.864384718317E+03   -0.86438E+03   -0.56985E-05  1184   0.953E-03    0.115E-02
DAV:   2    -0.864384750132E+03   -0.31814E-04   -0.10830E-04  1184   0.674E-03    0.113E-02
DAV:   3    -0.864384810748E+03   -0.60616E-04   -0.40029E-04  1248   0.761E-03    0.117E-02
DAV:   4    -0.864384789426E+03    0.21322E-04   -0.54415E-05  1184   0.652E-03    0.115E-02
DAV:   5    -0.864384807484E+03   -0.18059E-04   -0.33598E-05  1184   0.335E-03
  36 F= -.86438481E+03 E0= -.86438481E+03  d E =-.182464E-02  mag=     2.0000
       N       E                     dE             d eps       ncg     rms          rms(c)
DAV:   1    -0.864384633541E+03   -0.86438E+03   -0.28199E-03  1696   0.490E-02    0.123E-02
DAV:   2    -0.864384670311E+03   -0.36770E-04   -0.15318E-04  1184   0.121E-02    0.119E-02
DAV:   3    -0.864384678249E+03   -0.79383E-05   -0.16095E-05  1184   0.631E-03    0.117E-02
DAV:   4    -0.864384680466E+03   -0.22170E-05   -0.31443E-06  1152   0.388E-03    0.115E-02
DAV:   5    -0.864384695349E+03   -0.14883E-04   -0.25523E-05  1184   0.368E-03
  37 F= -.86438470E+03 E0= -.86438470E+03  d E =-.171251E-02  mag=     2.0000
       N       E                     dE             d eps       ncg     rms          rms(c)
DAV:   1    -0.864384768169E+03   -0.86438E+03   -0.14216E-03  1776   0.366E-02    0.179E-02
DAV:   2    -0.864384797407E+03   -0.29238E-04   -0.18100E-04  1184   0.158E-02    0.132E-02
DAV:   3    -0.864384835028E+03   -0.37621E-04   -0.18506E-04  1232   0.134E-02    0.130E-02
DAV:   4    -0.864384856661E+03   -0.21633E-04   -0.61345E-05  1184   0.939E-03    0.125E-02
DAV:   5    -0.864384879037E+03   -0.22376E-04   -0.59325E-05  1184   0.698E-03
  38 F= -.86438488E+03 E0= -.86438488E+03  d E =-.189619E-02  mag=     2.0000
       N       E                     dE             d eps       ncg     rms          rms(c)
DAV:   1    -0.864384045183E+03   -0.86438E+03   -0.98699E-02  2320   0.495E-01    0.457E-02
DAV:   2    -0.864384372964E+03   -0.32778E-03   -0.35641E-03  2896   0.103E-01    0.298E-02
DAV:   3    -0.864384388403E+03   -0.15439E-04   -0.19431E-04  1696   0.259E-02    0.231E-02
DAV:   4    -0.864384418554E+03   -0.30151E-04   -0.23212E-04  1536   0.220E-02    0.156E-02
DAV:   5    -0.864384455644E+03   -0.37089E-04   -0.18716E-04  1472   0.160E-02
  39 F= -.86438446E+03 E0= -.86438446E+03  d E =0.423393E-03  mag=     2.0000
